 Gaussian 16, Revision B.01,
 Gaussian 16:  ES64L-G16RevB.01 20-Dec-2017

 ------------------------------------------------------
 # int=ultrafine b3lyp/6-31g(d) freq=(hpmodes,intmodes)
 ------------------------------------------------------

 ------------------------
 19-I1-freq-b3lyp-631gd-1
 ------------------------
 Symbolic Z-matrix:
 Charge =  0 Multiplicity = 1

                         Standard orientation:
 ---------------------------------------------------------------------
 Center     Atomic      Atomic             Coordinates (Angstroms)
 Number     Number       Type             X           Y           Z
 ---------------------------------------------------------------------
      1          6           0       -1.154609    0.730685   -0.622693
      2          6           0       -1.265304    0.943297    0.830539
      3          6           0       -2.274569    0.100121    1.341344
      4          6           0       -2.914838   -0.518243    0.294345
      5          6           0       -2.474720    0.059895   -1.017583
      6          8           0       -0.502822   -1.614112   -0.532371
      7          6           0       -0.089428   -0.454223   -0.445986
      8          6           0        1.174178   -0.044275    0.030053
      9         17           0        1.773243    1.594807   -0.142771
     10         17           0        2.412039   -1.237484    0.260648
     11          1           0       -0.793741    1.554115   -1.236506
     12          1           0       -0.630298    1.603405    1.406349
     13          1           0       -2.462131   -0.078902    2.393741
     14          1           0       -3.684826   -1.276306    0.389954
     15          1           0       -3.195609    0.820811   -1.354490
     16          1           0       -2.364876   -0.688256   -1.804099
 ---------------------------------------------------------------------

 SCF Done:  E(RB3LYP) =  -1265.86143597     A.U. after   19 cycles

 The electronic state is 1-A.
 Alpha  occ. eigenvalues -- -101.56336-101.55221 -19.12152 -10.28924 -10.27110
 Alpha  occ. eigenvalues --  -10.24719 -10.24213 -10.22661 -10.21953 -10.21451
 Alpha  occ. eigenvalues --   -9.47943  -9.46821  -7.24350  -7.23359  -7.23340
 Alpha  occ. eigenvalues --   -7.23237  -7.22263  -7.22181  -1.02326  -0.90371
 Alpha  occ. eigenvalues --   -0.89368  -0.82936  -0.76078  -0.74192  -0.68180
 Alpha  occ. eigenvalues --   -0.59986  -0.56684  -0.54657  -0.52390  -0.49903
 Alpha  occ. eigenvalues --   -0.45324  -0.43384  -0.43034  -0.42145  -0.40133
 Alpha  occ. eigenvalues --   -0.39226  -0.38398  -0.37328  -0.35247  -0.33654
 Alpha  occ. eigenvalues --   -0.32287  -0.30609  -0.30388  -0.25464  -0.19923
 Alpha virt. eigenvalues --   -0.10810   0.00255   0.01926   0.05478   0.05846
 Alpha virt. eigenvalues --    0.09048   0.12244   0.14112   0.14378   0.14745
 Alpha virt. eigenvalues --    0.16025   0.17861   0.18877   0.22009   0.26772

 Mulliken charges:
               1
     1  C   -0.253344
     2  C   -0.094513
     3  C   -0.080347
     4  C   -0.071818
     5  C   -0.296424
     6  O   -0.492130
     7  C    0.472485
     8  C   -0.319359
     9  Cl   0.017354
    10  Cl   0.050189
    11  H    0.178419
    12  H    0.193664
    13  H    0.159485
    14  H    0.168869
    15  H    0.170394
    16  H    0.197077
 Sum of Mulliken charges =  -0.00000

 Dipole moment (field-independent basis, Debye):
    X=             -4.0731    Y=              2.6333    Z=              0.5646  Tot=              4.8829
 Quadrupole moment (field-independent basis, Debye-Ang):
   XX=            -63.8519   YY=            -74.1771   ZZ=            -67.1372
   XY=             -0.0072   XZ=             -0.8181   YZ=             -1.1795

  Exact polarizability: 177.967  -0.912  90.692  -2.752   2.724  72.258
 Approx polarizability: 377.488 -14.307 176.721 -15.305  22.284 122.951

                      1                      2                      3
                      A                      A                      A
 Frequencies --     46.1587                92.7822               127.3964
 Red. masses --      9.4099                 5.1602                 4.7759
 Frc consts  --      0.0118                 0.0262                 0.0457
 IR Inten    --      3.4214                 1.4075                 1.2674

                      4                      5                      6
                      A                      A                      A
 Frequencies --    177.3610               249.1247               259.3498
 Red. masses --      7.6896                 8.8384                 8.0494
 Frc consts  --      0.1425                 0.3232                 0.3190
 IR Inten    --      3.5557                 4.2453                 1.8504

                      7                      8                      9
                      A                      A                      A
 Frequencies --    321.3348               370.3649               402.8129
 Red. masses --     11.6446                 5.9222                 2.6903
 Frc consts  --      0.7084                 0.4786                 0.2572
 IR Inten    --      4.7135                11.9325                 5.5079

                     10                     11                     12
                      A                      A                      A
 Frequencies --    447.6169               525.7267               608.5637
 Red. masses --      8.0650                 3.3009                 3.4874
 Frc consts  --      0.9521                 0.5375                 0.7610
 IR Inten    --      7.1132                 7.0813                13.7364

                     13                     14                     15
                      A                      A                      A
 Frequencies --    626.4906               739.0048               747.6185
 Red. masses --      4.7027                 4.2389                 1.7764
 Frc consts  --      1.0875                 1.3640                 0.5850
 IR Inten    --      9.0018                 0.2511                42.0669

                     16                     17                     18
                      A                      A                      A
 Frequencies --    811.0280               822.6647               858.5956
 Red. masses --      5.9786                 2.9666                 1.5206
 Frc consts  --      2.3170                 1.1829                 0.6605
 IR Inten    --     15.7146                 7.4672                18.9370

                     19                     20                     21
                      A                      A                      A
 Frequencies --    909.3898               940.5415               965.9607
 Red. masses --      7.8986                 2.0054                 1.8197
 Frc consts  --      3.8486                 1.0452                 1.0004
 IR Inten    --    122.6306                22.9807                 0.7591

                     22                     23                     24
                      A                      A                      A
 Frequencies --    971.0296               985.9690              1048.5821
 Red. masses --      1.5076                 2.1181                 1.9269
 Frc consts  --      0.8375                 1.2132                 1.2483
 IR Inten    --      5.1473                12.9678                64.3105

                     25                     26                     27
                      A                      A                      A
 Frequencies --   1100.5520              1129.5100              1150.5013
 Red. masses --      1.3086                 1.1785                 1.3258
 Frc consts  --      0.9339                 0.8859                 1.0340
 IR Inten    --      4.2469                 7.1457                16.1938

                     28                     29                     30
                      A                      A                      A
 Frequencies --   1192.1199              1270.3764              1305.2528
 Red. masses --      1.2924                 4.5516                 2.4369
 Frc consts  --      1.0822                 4.3279                 2.4461
 IR Inten    --     21.0770               148.6264                22.7316

                     31                     32                     33
                      A                      A                      A
 Frequencies --   1315.8574              1384.1322              1451.3091
 Red. masses --      1.3059                 2.2574                 2.0621
 Frc consts  --      1.3322                 2.5481                 2.5591
 IR Inten    --      1.3113                 9.3257                42.3169

                     34                     35                     36
                      A                      A                      A
 Frequencies --   1473.0809              1544.7686              1673.0004
 Red. masses --      1.2613                 3.7450                11.6661
 Frc consts  --      1.6125                 5.2654                19.2384
 IR Inten    --      5.9862                41.4061               143.7789

                     37                     38                     39
                      A                      A                      A
 Frequencies --   3028.2065              3152.2226              3168.7734
 Red. masses --      1.0720                 1.0904                 1.0888
 Frc consts  --      5.7916                 6.3835                 6.4415
 IR Inten    --     14.5755                 2.3636                 3.3737

                     40                     41                     42
                      A                      A                      A
 Frequencies --   3231.7031              3248.8397              3274.7518
 Red. masses --      1.0882                 1.0994                 1.0962
 Frc consts  --      6.6962                 6.8372                 6.9260
 IR Inten    --      3.5389                 9.2331                 3.2524

 - Thermochemistry -
 -------------------
 Temperature   298.150 Kelvin.  Pressure   1.00000 Atm.
 Atom     1 has atomic number  6 and mass  12.00000

 Molecular mass:   175.97957 amu.
 Principal axes and moments of inertia in atomic units:
                           1         2         3
     Eigenvalues --  1026.813242551.621293059.95757
           X            0.99999   0.00386   0.00179
           Y           -0.00386   0.99999   0.00222
           Z           -0.00178  -0.00223   1.00000
 This molecule is an asymmetric top.
 Rotational symmetry number  1.
 Warning -- assumption of classical behavior for rotation
           may cause significant error
 Rotational temperatures (Kelvin)      0.08435     0.03394     0.02831
 Rotational constants (GHZ):           1.75761     0.70729     0.58979
 Zero-point vibrational energy     293984.8 (Joules/Mol)
                                   70.26406 (Kcal/Mol)
 Warning -- explicit consideration of  12 degrees of freedom as
           vibrations may cause significant error
 Vibrational temperatures:     66.41   133.49   183.29   255.18   358.43
          (Kelvin)            373.15   462.33   532.87   579.56   644.02
                              756.40   875.59   901.38  1063.26  1075.66
                             1166.89  1183.63  1235.33  1308.41  1353.23
                             1389.80  1397.09  1418.59  1508.68  1583.45
                             1625.11  1655.31  1715.19  1827.79  1877.97
                             1893.23  1991.46  2088.11  2119.43  2222.58
                             2407.07  4356.91  4535.35  4559.16  4649.70
                             4674.36  4711.64

 Zero-point correction=                           0.111973 (Hartree/Particle)
 Thermal correction to Energy=                    0.121251
 Thermal correction to Enthalpy=                  0.122195
 Thermal correction to Gibbs Free Energy=         0.076189
 Sum of electronic and zero-point Energies=          -1265.749463
 Sum of electronic and thermal Energies=             -1265.740185
 Sum of electronic and thermal Enthalpies=           -1265.739241
 Sum of electronic and thermal Free Energies=        -1265.785247

                     E (Thermal)             CV                S
                      KCal/Mol        Cal/Mol-Kelvin    Cal/Mol-Kelvin
 Total                   76.086             33.986             96.828
 Electronic               0.000              0.000              0.000
 Translational            0.889              2.981             41.403
 Rotational               0.889              2.981             30.462
 Vibrational             74.309             28.024             24.963
 Vibration     1          0.595              1.979              4.976
 Vibration     2          0.602              1.954              3.601
 Vibration     3          0.611              1.926              2.985
 Vibration     4          0.628              1.870              2.356
 Vibration     5          0.662              1.764              1.737
 Vibration     6          0.668              1.747              1.666
 Vibration     7          0.707              1.633              1.303
 Vibration     8          0.742              1.533              1.078
 Vibration     9          0.768              1.464              0.952
 Vibration    10          0.807              1.366              0.803
 Vibration    11          0.881              1.193              0.597
 Vibration    12          0.967              1.014              0.435

 Optimization completed.
    -- Stationary point found.
 Normal termination of Gaussian 16 at Wed Jul 15 21:35:13 2020.
