 Gaussian 16, Revision B.01,
 Gaussian 16:  ES64L-G16RevB.01 20-Dec-2017

 ------------------------------------------------------
 # int=ultrafine b3lyp/6-31g(d) freq=(hpmodes,intmodes)
 ------------------------------------------------------

 --------------------------
 20-TS2A-freq-b3lyp-631gd-1
 --------------------------
 Symbolic Z-matrix:
 Charge =  0 Multiplicity = 1

                         Standard orientation:
 ---------------------------------------------------------------------
 Center     Atomic      Atomic             Coordinates (Angstroms)
 Number     Number       Type             X           Y           Z
 ---------------------------------------------------------------------
      1          6           0       -1.141052    0.821869   -0.557862
      2          6           0       -1.416363    0.998228    0.881945
      3          6           0       -2.352448    0.045416    1.279167
      4          6           0       -2.772244   -0.649427    0.147853
      5          6           0       -2.393543    0.110719   -1.086604
      6          8           0       -0.613672   -1.524860   -0.391324
      7          6           0       -0.101170   -0.381565   -0.352954
      8          6           0        1.193834   -0.049346    0.009019
      9         17           0        1.832655    1.578728   -0.101296
     10         17           0        2.391818   -1.291505    0.196594
     11          1           0       -0.745113    1.669777   -1.112642
     12          1           0       -0.860359    1.665095    1.529933
     13          1           0       -2.603741   -0.204637    2.303168
     14          1           0       -3.412151   -1.524419    0.150295
     15          1           0       -3.169094    0.853936   -1.325318
     16          1           0       -2.218288   -0.519035   -1.958288
 ---------------------------------------------------------------------

 SCF Done:  E(RB3LYP) =  -1265.86088181     A.U. after   19 cycles

 The electronic state is 1-A.
 Alpha  occ. eigenvalues -- -101.55842-101.54788 -19.12949 -10.28114 -10.26493
 Alpha  occ. eigenvalues --  -10.25227 -10.24323 -10.22905 -10.21829 -10.21675
 Alpha  occ. eigenvalues --   -9.47446  -9.46378  -7.23856  -7.22855  -7.22847
 Alpha  occ. eigenvalues --   -7.22804  -7.21804  -7.21748  -1.02264  -0.89856
 Alpha  occ. eigenvalues --   -0.89495  -0.82481  -0.75780  -0.74418  -0.68382
 Alpha  occ. eigenvalues --   -0.60109  -0.56700  -0.54815  -0.52242  -0.50025
 Alpha  occ. eigenvalues --   -0.45147  -0.43711  -0.42926  -0.41855  -0.40668
 Alpha  occ. eigenvalues --   -0.39095  -0.38360  -0.37320  -0.35271  -0.33287
 Alpha  occ. eigenvalues --   -0.31853  -0.30182  -0.29474  -0.26676  -0.19707
 Alpha virt. eigenvalues --   -0.10246   0.00577   0.01889   0.05343   0.06431
 Alpha virt. eigenvalues --    0.08938   0.12139   0.14009   0.14421   0.14840
 Alpha virt. eigenvalues --    0.15973   0.18132   0.19225   0.21838   0.25330

 Mulliken charges:
               1
     1  C   -0.257576
     2  C   -0.081642
     3  C   -0.075105
     4  C   -0.061273
     5  C   -0.281633
     6  O   -0.499397
     7  C    0.480376
     8  C   -0.331723
     9  Cl   0.009996
    10  Cl   0.040708
    11  H    0.176236
    12  H    0.186428
    13  H    0.160171
    14  H    0.172664
    15  H    0.170810
    16  H    0.190960
 Sum of Mulliken charges =  -0.00000

 Dipole moment (field-independent basis, Debye):
    X=             -4.4532    Y=              2.3339    Z=              0.3671  Tot=              5.0411
 Quadrupole moment (field-independent basis, Debye-Ang):
   XX=            -64.5000   YY=            -73.0605   ZZ=            -67.1500
   XY=              0.3528   XZ=             -0.6090   YZ=             -0.6548

  Exact polarizability: 168.298   0.204  91.876  -3.122   2.789  70.273
 Approx polarizability: 324.133  -4.487 178.094 -13.294  19.846 115.998

 ******    1 imaginary frequencies (negative Signs) ******

                      1                      2                      3
                      A                      A                      A
 Frequencies --   -120.4936                70.8852               112.9167
 Red. masses --      4.9176                 8.1126                 5.1562
 Frc consts  --      0.0421                 0.0240                 0.0387
 IR Inten    --      6.6553                 3.1735                 2.8847

                      4                      5                      6
                      A                      A                      A
 Frequencies --    167.6777               246.1208               286.1583
 Red. masses --      9.3967                11.3208                 6.5962
 Frc consts  --      0.1557                 0.4040                 0.3182
 IR Inten    --      0.7947                 3.7167                 5.1075

                      7                      8                      9
                      A                      A                      A
 Frequencies --    314.1142               378.9665               443.7204
 Red. masses --     11.3751                 6.6579                 2.4896
 Frc consts  --      0.6613                 0.5634                 0.2888
 IR Inten    --     11.0231                 6.5373                11.4232

                     10                     11                     12
                      A                      A                      A
 Frequencies --    448.6641               522.1988               622.4634
 Red. masses --      8.7310                 3.3463                 3.8930
 Frc consts  --      1.0355                 0.5376                 0.8887
 IR Inten    --      4.9173                 6.4135                12.7898

                     13                     14                     15
                      A                      A                      A
 Frequencies --    637.9002               747.2445               768.3777
 Red. masses --      5.4627                 2.0054                 3.6390
 Frc consts  --      1.3097                 0.6597                 1.2658
 IR Inten    --      8.1924                 6.2826                36.3682

                     16                     17                     18
                      A                      A                      A
 Frequencies --    812.3264               828.2380               884.1673
 Red. masses --      5.9977                 2.5613                 1.5115
 Frc consts  --      2.3318                 1.0352                 0.6962
 IR Inten    --      9.9335                 9.5467                12.5350

                     19                     20                     21
                      A                      A                      A
 Frequencies --    913.2658               948.9304               965.9978
 Red. masses --      8.0883                 1.8830                 1.5275
 Frc consts  --      3.9747                 0.9990                 0.8398
 IR Inten    --    113.8275                14.2795                 7.0532

                     22                     23                     24
                      A                      A                      A
 Frequencies --    971.8519               990.9748              1046.1056
 Red. masses --      1.7622                 1.9667                 1.8671
 Frc consts  --      0.9806                 1.1380                 1.2039
 IR Inten    --      4.6871                14.9830                47.8917

                     25                     26                     27
                      A                      A                      A
 Frequencies --   1105.1892              1117.1692              1152.5682
 Red. masses --      1.2061                 1.3259                 1.3344
 Frc consts  --      0.8680                 0.9750                 1.0444
 IR Inten    --      6.9350                 7.9623                11.3442

                     28                     29                     30
                      A                      A                      A
 Frequencies --   1192.2709              1286.5157              1313.0442
 Red. masses --      1.2893                 2.2265                 1.3038
 Frc consts  --      1.0798                 2.1712                 1.3244
 IR Inten    --      9.0424                21.7034                 2.0679

                     31                     32                     33
                      A                      A                      A
 Frequencies --   1320.3738              1381.1817              1466.2106
 Red. masses --      5.3757                 2.3582                 2.7732
 Frc consts  --      5.5218                 2.6505                 3.5125
 IR Inten    --    115.7735                23.1062                86.7948

                     34                     35                     36
                      A                      A                      A
 Frequencies --   1486.1826              1509.0249              1619.5378
 Red. masses --      1.2036                 2.9469                10.8097
 Frc consts  --      1.5663                 3.9538                16.7050
 IR Inten    --     12.5082                 3.9582                75.4134

                     37                     38                     39
                      A                      A                      A
 Frequencies --   3037.3157              3169.4093              3180.6237
 Red. masses --      1.0712                 1.0921                 1.0893
 Frc consts  --      5.8224                 6.4636                 6.4927
 IR Inten    --     14.5022                 3.4814                 4.2919

                     40                     41                     42
                      A                      A                      A
 Frequencies --   3236.8453              3253.5235              3262.5103
 Red. masses --      1.0888                 1.0947                 1.1014
 Frc consts  --      6.7211                 6.8273                 6.9072
 IR Inten    --      6.0831                 5.3881                 1.1445

 - Thermochemistry -
 -------------------
 Temperature   298.150 Kelvin.  Pressure   1.00000 Atm.
 Atom     1 has atomic number  6 and mass  12.00000

 Molecular mass:   175.97957 amu.
 Principal axes and moments of inertia in atomic units:
                           1         2         3
     Eigenvalues --  1021.743652530.236323070.63055
           X            0.99999   0.00361   0.00229
           Y           -0.00361   0.99999   0.00183
           Z           -0.00228  -0.00184   1.00000
 This molecule is an asymmetric top.
 Rotational symmetry number  1.
 Warning -- assumption of classical behavior for rotation
           may cause significant error
 Rotational temperatures (Kelvin)      0.08477     0.03423     0.02821
 Rotational constants (GHZ):           1.76633     0.71327     0.58774
    1 imaginary frequencies ignored.
 Zero-point vibrational energy     294393.6 (Joules/Mol)
                                   70.36175 (Kcal/Mol)
 Warning -- explicit consideration of  10 degrees of freedom as
           vibrations may cause significant error
 Vibrational temperatures:    101.99   162.46   241.25   354.11   411.72
          (Kelvin)            451.94   545.25   638.41   645.53   751.33
                              895.59   917.80  1075.12  1105.52  1168.76
                             1191.65  1272.12  1313.99  1365.30  1389.86
                             1398.28  1425.79  1505.11  1590.12  1607.36
                             1658.29  1715.41  1851.01  1889.18  1899.72
                             1987.21  2109.55  2138.29  2171.15  2330.15
                             4370.02  4560.07  4576.21  4657.10  4681.09
                             4694.02

 Zero-point correction=                           0.112129 (Hartree/Particle)
 Thermal correction to Energy=                    0.120549
 Thermal correction to Enthalpy=                  0.121493
 Thermal correction to Gibbs Free Energy=         0.077622
 Sum of electronic and zero-point Energies=          -1265.748753
 Sum of electronic and thermal Energies=             -1265.740333
 Sum of electronic and thermal Enthalpies=           -1265.739389
 Sum of electronic and thermal Free Energies=        -1265.783260

                     E (Thermal)             CV                S
                      KCal/Mol        Cal/Mol-Kelvin    Cal/Mol-Kelvin
 Total                   75.645             31.744             92.334
 Electronic               0.000              0.000              0.000
 Translational            0.889              2.981             41.403
 Rotational               0.889              2.981             30.452
 Vibrational             73.868             25.782             20.479
 Vibration     1          0.598              1.968              4.129
 Vibration     2          0.607              1.939              3.218
 Vibration     3          0.624              1.882              2.461
 Vibration     4          0.661              1.769              1.758
 Vibration     5          0.684              1.699              1.497
 Vibration     6          0.702              1.647              1.341
 Vibration     7          0.749              1.515              1.043
 Vibration     8          0.803              1.375              0.815
 Vibration     9          0.808              1.364              0.800
 Vibration    10          0.877              1.201              0.605

 Optimization completed.
    -- Stationary point found.
 Normal termination of Gaussian 16 at Wed Jul 15 21:35:19 2020.
