 Gaussian 16, Revision B.01,
 Gaussian 16:  ES64L-G16RevB.01 20-Dec-2017

 ------------------------------------------------------
 # int=ultrafine b3lyp/6-31g(d) freq=(hpmodes,intmodes)
 ------------------------------------------------------

 -------------------------
 18-TS1-freq-b3lyp-631gd-1
 -------------------------
 Symbolic Z-matrix:
 Charge =  0 Multiplicity = 1

                         Standard orientation:
 ---------------------------------------------------------------------
 Center     Atomic      Atomic             Coordinates (Angstroms)
 Number     Number       Type             X           Y           Z
 ---------------------------------------------------------------------
      1          6           0        1.303230    0.723546    0.682312
      2          6           0        1.522857    1.013894   -0.660950
      3          6           0        2.584848    0.186286   -1.168665
      4          6           0        3.079896   -0.565366   -0.149596
      5          6           0        2.413785   -0.191154    1.140696
      6          8           0        0.436566   -1.739066    0.002880
      7          6           0       -0.106212   -0.668477    0.076594
      8          6           0       -1.306295   -0.050224   -0.031128
      9         17           0       -1.629530    1.659380    0.094925
     10         17           0       -2.727101   -1.071404   -0.126416
     11          1           0        0.732425    1.347538    1.357982
     12          1           0        0.957013    1.731636   -1.243058
     13          1           0        2.891605    0.144309   -2.207122
     14          1           0        3.853497   -1.320661   -0.229807
     15          1           0        3.105256    0.380088    1.780793
     16          1           0        2.077733   -1.057014    1.717959
 ---------------------------------------------------------------------

 SCF Done:  E(RB3LYP) =  -1265.85487931     A.U. after   17 cycles

 The electronic state is 1-A.
 Alpha  occ. eigenvalues -- -101.55954-101.54696 -19.16353 -10.29287 -10.27815
 Alpha  occ. eigenvalues --  -10.23926 -10.23062 -10.22994 -10.21823 -10.21609
 Alpha  occ. eigenvalues --   -9.47533  -9.46263  -7.23974  -7.22942  -7.22908
 Alpha  occ. eigenvalues --   -7.22718  -7.21661  -7.21636  -1.06015  -0.89982
 Alpha  occ. eigenvalues --   -0.89270  -0.82435  -0.74674  -0.73917  -0.70365
 Alpha  occ. eigenvalues --   -0.58885  -0.56493  -0.54762  -0.51511  -0.49242
 Alpha  occ. eigenvalues --   -0.46191  -0.44885  -0.43215  -0.42085  -0.40813
 Alpha  occ. eigenvalues --   -0.39809  -0.39131  -0.38041  -0.35983  -0.33475
 Alpha  occ. eigenvalues --   -0.31963  -0.31598  -0.30194  -0.26148  -0.20145
 Alpha virt. eigenvalues --   -0.08661  -0.01353   0.01089   0.02983   0.08118
 Alpha virt. eigenvalues --    0.08967   0.10532   0.12621   0.14239   0.14804
 Alpha virt. eigenvalues --    0.14876   0.16860   0.17807   0.20157   0.25692

 Mulliken charges:
               1
     1  C   -0.238923
     2  C   -0.071059
     3  C   -0.091483
     4  C   -0.083129
     5  C   -0.321628
     6  O   -0.430842
     7  C    0.452952
     8  C   -0.338220
     9  Cl   0.012812
    10  Cl   0.023840
    11  H    0.188933
    12  H    0.185145
    13  H    0.155352
    14  H    0.163013
    15  H    0.186353
    16  H    0.206884
 Sum of Mulliken charges =  -0.00000

 Dipole moment (field-independent basis, Debye):
    X=              4.6176    Y=              1.9760    Z=              0.4196  Tot=              5.0401
 Quadrupole moment (field-independent basis, Debye-Ang):
   XX=            -65.7566   YY=            -73.5751   ZZ=            -66.9347
   XY=             -0.4924   XZ=              0.2707   YZ=             -0.9768

  Exact polarizability: 149.638  -2.147  89.922  -0.792  -3.532  70.527
 Approx polarizability: 226.323  -6.303 171.113  -2.518 -13.129 116.187

 ******    1 imaginary frequencies (negative Signs) ******

                      1                      2                      3
                      A                      A                      A
 Frequencies --   -201.1851                68.8471                95.3054
 Red. masses --      9.9766                 8.5699                 4.9606
 Frc consts  --      0.2379                 0.0239                 0.0265
 IR Inten    --     62.6373                 0.8080                 0.7667

                      4                      5                      6
                      A                      A                      A
 Frequencies --    129.3912               165.9456               205.9384
 Red. masses --      4.6681                 7.2096                 5.7318
 Frc consts  --      0.0460                 0.1170                 0.1432
 IR Inten    --      2.6224                 7.1627                 2.3044

                      7                      8                      9
                      A                      A                      A
 Frequencies --    255.3287               260.1119               339.9762
 Red. masses --     12.2745                13.2017                10.7624
 Frc consts  --      0.4715                 0.5263                 0.7329
 IR Inten    --      9.5217                 1.4205                 8.3772

                     10                     11                     12
                      A                      A                      A
 Frequencies --    372.0696               453.1254               507.2400
 Red. masses --      2.0390                 6.0414                 6.0512
 Frc consts  --      0.1663                 0.7308                 0.9173
 IR Inten    --     25.6523                13.9822                 2.6635

                     13                     14                     15
                      A                      A                      A
 Frequencies --    537.1286               594.4117               719.9066
 Red. masses --      3.6663                 6.9075                 1.3245
 Frc consts  --      0.6232                 1.4379                 0.4044
 IR Inten    --     11.6212                73.4173                53.6137

                     16                     17                     18
                      A                      A                      A
 Frequencies --    816.9942               817.7713               853.4174
 Red. masses --      3.5976                 4.6075                 1.3795
 Frc consts  --      1.4148                 1.8154                 0.5920
 IR Inten    --     11.9585                 1.4180                 2.9578

                     19                     20                     21
                      A                      A                      A
 Frequencies --    877.8145               922.7674               951.9402
 Red. masses --      7.7046                 1.7128                 1.9640
 Frc consts  --      3.4979                 0.8593                 1.0486
 IR Inten    --     45.7179                29.9374                 8.0299

                     22                     23                     24
                      A                      A                      A
 Frequencies --    970.5663               978.9712              1003.1809
 Red. masses --      1.6018                 1.3884                 1.5203
 Frc consts  --      0.8890                 0.7840                 0.9015
 IR Inten    --     14.6272                 4.5884                 4.2645

                     25                     26                     27
                      A                      A                      A
 Frequencies --   1073.7809              1117.1390              1140.6524
 Red. masses --      2.0368                 1.1734                 1.2770
 Frc consts  --      1.3837                 0.8628                 0.9789
 IR Inten    --      6.5442                 1.7194                 1.3035

                     28                     29                     30
                      A                      A                      A
 Frequencies --   1154.3375              1296.8065              1303.4963
 Red. masses --      1.1582                 9.6899                 1.4750
 Frc consts  --      0.9093                 9.6011                 1.4766
 IR Inten    --      1.4263                50.0457                 3.2744

                     31                     32                     33
                      A                      A                      A
 Frequencies --   1338.5740              1431.7678              1447.1131
 Red. masses --      1.8660                 1.5430                 1.5474
 Frc consts  --      1.9700                 1.8636                 1.9092
 IR Inten    --      3.0398                56.3649                 2.1141

                     34                     35                     36
                      A                      A                      A
 Frequencies --   1484.4842              1601.2620              1949.6115
 Red. masses --      3.3000                 4.5841                12.6238
 Frc consts  --      4.2846                 6.9252                28.2706
 IR Inten    --     15.5450                19.8248               168.6030

                     37                     38                     39
                      A                      A                      A
 Frequencies --   3030.2459              3127.9391              3233.9503
 Red. masses --      1.0722                 1.0886                 1.0874
 Frc consts  --      5.8005                 6.2756                 6.7004
 IR Inten    --      3.6698                 0.4973                 2.2249

                     40                     41                     42
                      A                      A                      A
 Frequencies --   3247.0041              3253.6215              3263.0014
 Red. masses --      1.0907                 1.0985                 1.1023
 Frc consts  --      6.7751                 6.8513                 6.9149
 IR Inten    --      4.2036                 5.5542                 1.1563

 - Thermochemistry -
 -------------------
 Temperature   298.150 Kelvin.  Pressure   1.00000 Atm.
 Atom     1 has atomic number  6 and mass  12.00000

 Molecular mass:   175.97957 amu.
 Principal axes and moments of inertia in atomic units:
                           1         2         3
     Eigenvalues --   999.824032801.327443382.79767
           X            0.99998  -0.00625   0.00239
           Y            0.00628   0.99992  -0.01076
           Z           -0.00232   0.01077   0.99994
 This molecule is an asymmetric top.
 Rotational symmetry number  1.
 Warning -- assumption of classical behavior for rotation
           may cause significant error
 Rotational temperatures (Kelvin)      0.08663     0.03092     0.02560
 Rotational constants (GHZ):           1.80506     0.64425     0.53351
    1 imaginary frequencies ignored.
 Zero-point vibrational energy     289454.0 (Joules/Mol)
                                   69.18118 (Kcal/Mol)
 Warning -- explicit consideration of  13 degrees of freedom as
           vibrations may cause significant error
 Vibrational temperatures:     99.06   137.12   186.17   238.76   296.30
          (Kelvin)            367.36   374.24   489.15   535.33   651.95
                              729.81   772.81   855.23  1035.78  1175.47
                             1176.59  1227.88  1262.98  1327.66  1369.63
                             1396.43  1408.52  1443.35  1544.93  1607.31
                             1641.14  1660.83  1865.82  1875.44  1925.91
                             2059.99  2082.07  2135.84  2303.86  2805.06
                             4359.85  4500.41  4652.93  4671.71  4681.24
                             4694.73

 Zero-point correction=                           0.110247 (Hartree/Particle)
 Thermal correction to Energy=                    0.119702
 Thermal correction to Enthalpy=                  0.120646
 Thermal correction to Gibbs Free Energy=         0.074431
 Sum of electronic and zero-point Energies=          -1265.744632
 Sum of electronic and thermal Energies=             -1265.735177
 Sum of electronic and thermal Enthalpies=           -1265.734233
 Sum of electronic and thermal Free Energies=        -1265.780448

                     E (Thermal)             CV                S
                      KCal/Mol        Cal/Mol-Kelvin    Cal/Mol-Kelvin
 Total                   75.114             33.979             97.268
 Electronic               0.000              0.000              0.000
 Translational            0.889              2.981             41.403
 Rotational               0.889              2.981             30.628
 Vibrational             73.337             28.017             25.237
 Vibration     1          0.598              1.969              4.186
 Vibration     2          0.603              1.953              3.548
 Vibration     3          0.612              1.924              2.955
 Vibration     4          0.624              1.884              2.481
 Vibration     5          0.640              1.831              2.079
 Vibration     6          0.666              1.754              1.693
 Vibration     7          0.668              1.746              1.661
 Vibration     8          0.720              1.596              1.212
 Vibration     9          0.744              1.530              1.071
 Vibration    10          0.812              1.354              0.786
 Vibration    11          0.862              1.234              0.640
 Vibration    12          0.892              1.168              0.571
 Vibration    13          0.952              1.044              0.459

 Optimization completed.
    -- Stationary point found.
 Normal termination of Gaussian 16 at Wed Jul 15 21:34:57 2020.
