 Gaussian 16, Revision B.01,
 Gaussian 16:  ES64L-G16RevB.01 20-Dec-2017

 ------------------------------------------------------
 # int=ultrafine b3lyp/6-31g(d) freq=(hpmodes,intmodes)
 ------------------------------------------------------

 --------------------------
 21-TS2B-freq-b3lyp-631gd-1
 --------------------------
 Symbolic Z-matrix:
 Charge =  0 Multiplicity = 1

                         Standard orientation:
 ---------------------------------------------------------------------
 Center     Atomic      Atomic             Coordinates (Angstroms)
 Number     Number       Type             X           Y           Z
 ---------------------------------------------------------------------
      1          6           0       -1.166504    0.773816   -0.604746
      2          6           0       -1.110551    0.857764    0.876626
      3          6           0       -2.107002    0.001649    1.414505
      4          6           0       -2.888792   -0.480984    0.401281
      5          6           0       -2.540665    0.163985   -0.910981
      6          8           0       -0.483559   -1.556720   -0.829558
      7          6           0       -0.112758   -0.406305   -0.615106
      8          6           0        1.118888   -0.039492    0.017143
      9         17           0        1.796964    1.575366   -0.139320
     10         17           0        2.304223   -1.274986    0.304438
     11          1           0       -0.865889    1.651276   -1.175311
     12          1           0       -0.463663    1.515063    1.440280
     13          1           0       -2.199093   -0.255180    2.463628
     14          1           0       -3.695545   -1.196737    0.520404
     15          1           0       -3.266914    0.955184   -1.150549
     16          1           0       -2.516278   -0.544900   -1.741320
 ---------------------------------------------------------------------

 SCF Done:  E(RB3LYP) =  -1265.86124457     A.U. after   18 cycles

 The electronic state is 1-A.
 Alpha  occ. eigenvalues -- -101.56536-101.55498 -19.12444 -10.29678 -10.27495
 Alpha  occ. eigenvalues --  -10.24800 -10.23622 -10.22389 -10.21735 -10.21237
 Alpha  occ. eigenvalues --   -9.48147  -9.47111  -7.24556  -7.23564  -7.23539
 Alpha  occ. eigenvalues --   -7.23521  -7.22560  -7.22467  -1.02866  -0.90681
 Alpha  occ. eigenvalues --   -0.89064  -0.83175  -0.76259  -0.73947  -0.67827
 Alpha  occ. eigenvalues --   -0.60013  -0.56450  -0.54393  -0.52574  -0.49795
 Alpha  occ. eigenvalues --   -0.45530  -0.43673  -0.42926  -0.42172  -0.39818
 Alpha  occ. eigenvalues --   -0.39032  -0.38435  -0.37279  -0.35166  -0.33830
 Alpha  occ. eigenvalues --   -0.32497  -0.30781  -0.30687  -0.25340  -0.20641
 Alpha virt. eigenvalues --   -0.10323  -0.00276   0.02074   0.03890   0.06337
 Alpha virt. eigenvalues --    0.09175   0.12429   0.14179   0.14433   0.14870
 Alpha virt. eigenvalues --    0.16213   0.17837   0.18617   0.22587   0.27498

 Mulliken charges:
               1
     1  C   -0.243170
     2  C   -0.110959
     3  C   -0.079236
     4  C   -0.081117
     5  C   -0.297802
     6  O   -0.478980
     7  C    0.471952
     8  C   -0.311773
     9  Cl   0.020175
    10  Cl   0.054127
    11  H    0.176542
    12  H    0.194199
    13  H    0.158026
    14  H    0.165215
    15  H    0.167275
    16  H    0.195527
 Sum of Mulliken charges =  -0.00000

 Dipole moment (field-independent basis, Debye):
    X=             -3.6356    Y=              2.5936    Z=              1.0040  Tot=              4.5774
 Quadrupole moment (field-independent basis, Debye-Ang):
   XX=            -64.3352   YY=            -73.9153   ZZ=            -67.8292
   XY=             -0.1705   XZ=             -0.9476   YZ=             -2.3442

  Exact polarizability: 170.477  -0.691  89.485  -2.379   1.695  74.323
 Approx polarizability: 353.475 -11.549 168.812 -14.344  21.476 130.202

 ******    1 imaginary frequencies (negative Signs) ******

                      1                      2                      3
                      A                      A                      A
 Frequencies --    -57.6974               106.9310               134.4687
 Red. masses --     10.0492                 5.2677                 4.9394
 Frc consts  --      0.0197                 0.0355                 0.0526
 IR Inten    --      2.3137                 0.9708                 0.4902

                      4                      5                      6
                      A                      A                      A
 Frequencies --    179.9540               246.5268               256.3122
 Red. masses --      7.5366                 7.0655                12.0092
 Frc consts  --      0.1438                 0.2530                 0.4648
 IR Inten    --      5.9500                 3.9590                 0.1164

                      7                      8                      9
                      A                      A                      A
 Frequencies --    328.4078               370.1775               394.1086
 Red. masses --     10.1266                 3.5658                 3.7643
 Frc consts  --      0.6435                 0.2879                 0.3445
 IR Inten    --      5.7124                14.3708                 1.9000

                     10                     11                     12
                      A                      A                      A
 Frequencies --    449.1547               535.6187               615.0098
 Red. masses --      9.2880                 3.4475                 4.4446
 Frc consts  --      1.1040                 0.5827                 0.9905
 IR Inten    --      9.9007                 5.5521                20.5984

                     13                     14                     15
                      A                      A                      A
 Frequencies --    639.6856               741.5848               759.9646
 Red. masses --      3.1911                 2.2475                 2.2753
 Frc consts  --      0.7694                 0.7282                 0.7742
 IR Inten    --      9.7691                38.6448                 5.2789

                     16                     17                     18
                      A                      A                      A
 Frequencies --    809.1414               830.0323               846.5185
 Red. masses --      6.1689                 3.8041                 1.4871
 Frc consts  --      2.3796                 1.5442                 0.6278
 IR Inten    --     28.4940                 7.4163                29.9229

                     19                     20                     21
                      A                      A                      A
 Frequencies --    909.1328               939.4398               958.2832
 Red. masses --      9.0586                 2.0919                 1.8910
 Frc consts  --      4.4113                 1.0878                 1.0231
 IR Inten    --    128.6047                12.6574                 1.0660

                     22                     23                     24
                      A                      A                      A
 Frequencies --    970.1153               990.0254              1041.6027
 Red. masses --      1.4861                 2.0491                 1.9656
 Frc consts  --      0.8241                 1.1833                 1.2564
 IR Inten    --      6.1695                 8.3462                60.0527

                     25                     26                     27
                      A                      A                      A
 Frequencies --   1100.1850              1133.0835              1156.4179
 Red. masses --      1.3458                 1.1716                 1.2674
 Frc consts  --      0.9597                 0.8862                 0.9986
 IR Inten    --      2.7161                 6.4722                10.9737

                     28                     29                     30
                      A                      A                      A
 Frequencies --   1205.9714              1243.1388              1300.3081
 Red. masses --      1.4108                 4.4151                 2.2940
 Frc consts  --      1.2089                 4.0201                 2.2852
 IR Inten    --     22.2596               123.7140                12.5885

                     31                     32                     33
                      A                      A                      A
 Frequencies --   1315.8211              1376.1576              1440.9771
 Red. masses --      1.3156                 2.1386                 2.2306
 Frc consts  --      1.3420                 2.3862                 2.7289
 IR Inten    --      2.7605                 6.8744                29.6029

                     34                     35                     36
                      A                      A                      A
 Frequencies --   1474.7606              1563.7078              1702.2667
 Red. masses --      1.1523                 4.0895                11.8479
 Frc consts  --      1.4766                 5.8915                20.2277
 IR Inten    --      9.5190                39.3721               176.2964

                     37                     38                     39
                      A                      A                      A
 Frequencies --   3032.2722              3141.0664              3163.8113
 Red. masses --      1.0718                 1.0906                 1.0885
 Frc consts  --      5.8062                 6.3398                 6.4194
 IR Inten    --     18.3278                 2.4149                 4.1058

                     40                     41                     42
                      A                      A                      A
 Frequencies --   3227.7959              3246.2049              3281.2099
 Red. masses --      1.0880                 1.1002                 1.0952
 Frc consts  --      6.6787                 6.8307                 6.9473
 IR Inten    --      2.2711                10.7672                 3.1949

 - Thermochemistry -
 -------------------
 Temperature   298.150 Kelvin.  Pressure   1.00000 Atm.
 Atom     1 has atomic number  6 and mass  12.00000

 Molecular mass:   175.97957 amu.
 Principal axes and moments of inertia in atomic units:
                           1         2         3
     Eigenvalues --  1051.736792492.153142949.37117
           X            1.00000   0.00255   0.00128
           Y           -0.00255   0.99999  -0.00432
           Z           -0.00130   0.00431   0.99999
 This molecule is an asymmetric top.
 Rotational symmetry number  1.
 Warning -- assumption of classical behavior for rotation
           may cause significant error
 Rotational temperatures (Kelvin)      0.08235     0.03475     0.02937
 Rotational constants (GHZ):           1.71596     0.72417     0.61191
    1 imaginary frequencies ignored.
 Zero-point vibrational energy     294026.3 (Joules/Mol)
                                   70.27396 (Kcal/Mol)
 Warning -- explicit consideration of  11 degrees of freedom as
           vibrations may cause significant error
 Vibrational temperatures:    153.85   193.47   258.91   354.70   368.78
          (Kelvin)            472.51   532.60   567.03   646.23   770.64
                              884.86   920.36  1066.98  1093.42  1164.17
                             1194.23  1217.95  1308.04  1351.64  1378.76
                             1395.78  1424.43  1498.63  1582.92  1630.25
                             1663.83  1735.12  1788.60  1870.85  1893.17
                             1979.98  2073.24  2121.85  2249.83  2449.18
                             4362.76  4519.29  4552.02  4644.08  4670.56
                             4720.93

 Zero-point correction=                           0.111989 (Hartree/Particle)
 Thermal correction to Energy=                    0.120368
 Thermal correction to Enthalpy=                  0.121312
 Thermal correction to Gibbs Free Energy=         0.077894
 Sum of electronic and zero-point Energies=          -1265.749256
 Sum of electronic and thermal Energies=             -1265.740877
 Sum of electronic and thermal Enthalpies=           -1265.739932
 Sum of electronic and thermal Free Energies=        -1265.783351

                     E (Thermal)             CV                S
                      KCal/Mol        Cal/Mol-Kelvin    Cal/Mol-Kelvin
 Total                   75.532             31.931             91.382
 Electronic               0.000              0.000              0.000
 Translational            0.889              2.981             41.403
 Rotational               0.889              2.981             30.426
 Vibrational             73.755             25.970             19.554
 Vibration     1          0.606              1.944              3.324
 Vibration     2          0.613              1.919              2.881
 Vibration     3          0.629              1.867              2.329
 Vibration     4          0.661              1.769              1.755
 Vibration     5          0.666              1.752              1.687
 Vibration     6          0.712              1.619              1.268
 Vibration     7          0.742              1.533              1.079
 Vibration     8          0.761              1.483              0.985
 Vibration     9          0.808              1.363              0.798
 Vibration    10          0.891              1.171              0.575
 Vibration    11          0.975              1.000              0.425

 Optimization completed.
    -- Stationary point found.
 Normal termination of Gaussian 16 at Wed Jul 15 21:35:21 2020.
