 Gaussian 16, Revision B.01,
 Gaussian 16:  ES64L-G16RevB.01 20-Dec-2017

 ----------------------------------
 # wb97xd/6-311g(d,p) int=ultrafine
 ----------------------------------

 ------------------------------
 ol17ryu_e_int2_SSR_H_2_TSe_spe
 ------------------------------
 Symbolic Z-matrix:
 Charge =  1 Multiplicity = 1

                         Standard orientation:
 ---------------------------------------------------------------------
 Center     Atomic      Atomic             Coordinates (Angstroms)
 Number     Number       Type             X           Y           Z
 ---------------------------------------------------------------------
      1          6           0        2.332633   -0.643334    1.556188
      2          7           0        1.312112   -1.680087    1.192433
      3          5           0        0.590935   -1.018475   -0.098245
      4          6           0       -0.274859   -2.031606   -0.979915
      5          6           0       -1.242065   -2.863229   -0.372910
      6          8           0       -1.244374   -2.821809    1.003583
      7          6           0       -2.131322   -3.645327    1.790485
      8          6           0       -2.104583   -3.037061    3.187466
      9          6           0       -1.667173   -5.101113    1.784441
     10          6           0       -2.133307   -3.621127   -1.140199
     11          6           0       -2.046354   -3.575136   -2.535733
     12          6           0       -1.083312   -2.786793   -3.163418
     13          6           0       -0.211639   -2.024603   -2.377768
     14          8           0       -0.220459    0.059665    0.536909
     15          6           0       -1.541462    0.323975    0.211962
     16          6           0       -1.630598    1.530366   -0.734531
     17          6           0       -0.714991    1.437208   -1.926992
     18          7           0       -0.746479    2.769721    0.260857
     19          7           0       -0.376943    3.592354    0.900317
     20         14           0       -3.366306    2.424190   -1.063578
     21          6           0       -3.083973    3.617365   -2.489059
     22          6           0       -3.926973    3.342219    0.476563
     23          6           0       -4.505171    0.995512   -1.490539
     24          6           0       -5.802685    0.970251   -0.944583
     25          6           0       -6.658115   -0.108714   -1.170456
     26          6           0       -6.227235   -1.194471   -1.935738
     27          6           0       -4.945650   -1.187711   -2.490765
     28          6           0       -4.100138   -0.099387   -2.277528
     29          6           0       -2.406041    0.391694    1.458881
     30          6           0       -1.921121    1.001221    2.622226
     31          6           0       -2.721362    1.080613    3.762125
     32          6           0       -4.011124    0.541012    3.753146
     33          6           0       -4.484963   -0.100566    2.607021
     34          6           0       -3.681173   -0.184366    1.468635
     35          8           0        1.751696   -0.478346   -0.768234
     36          6           0        2.722441    0.012498    0.157007
     37          6           0        4.117260   -0.399353   -0.337877
     38          6           0        4.253910   -1.372301   -1.329988
     39          6           0        5.520191   -1.790537   -1.760471
     40          6           0        5.656672   -2.869714   -2.809592
     41          6           0        6.651637   -1.208467   -1.181930
     42          6           0        6.543900   -0.215855   -0.199619
     43          6           0        7.781804    0.431811    0.375469
     44          6           0        5.267984    0.181868    0.209525
     45          6           0        2.638318    1.548886    0.201892
     46          6           0        2.507340    2.220297   -1.022735
     47          6           0        2.433549    3.612399   -1.090332
     48          6           0        2.311959    4.317663   -2.421135
     49          6           0        2.505557    4.344810    0.103173
     50          6           0        2.666336    3.708889    1.338120
     51          6           0        2.726560    4.507510    2.618688
     52          6           0        2.734841    2.306105    1.370179
     53          6           0        2.045560   -2.978168    0.992400
     54          6           0        3.400756   -2.832726    1.724021
     55          6           0        3.380700   -1.420924    2.356589
     56          1           0        1.814075    0.100450    2.157932
     57          1           0        0.612960   -1.784318    1.926909
     58          1           0       -3.145847   -3.559165    1.377778
     59          1           0       -2.778970   -3.584998    3.853127
     60          1           0       -2.409439   -1.988615    3.162489
     61          1           0       -1.092414   -3.100749    3.605802
     62          1           0       -1.611231   -5.510126    0.772434
     63          1           0       -0.672015   -5.176151    2.237914
     64          1           0       -2.355492   -5.720804    2.368694
     65          1           0       -2.886967   -4.244922   -0.674547
     66          1           0       -2.733087   -4.175216   -3.127073
     67          1           0       -1.007431   -2.770447   -4.246819
     68          1           0        0.541955   -1.400794   -2.852542
     69          1           0       -1.970761   -0.452600   -0.448730
     70          1           0       -0.649251    2.375004   -2.481489
     71          1           0        0.277040    1.078029   -1.656107
     72          1           0       -1.165414    0.685028   -2.587579
     73          1           0       -4.010662    4.172902   -2.675265
     74          1           0       -2.821547    3.099841   -3.417435
     75          1           0       -2.300242    4.352697   -2.269683
     76          1           0       -4.050267    2.678096    1.336122
     77          1           0       -4.890659    3.825611    0.276484
     78          1           0       -3.226114    4.138911    0.748813
     79          1           0       -6.148485    1.787694   -0.317664
     80          1           0       -7.655857   -0.106074   -0.740654
     81          1           0       -6.887701   -2.041198   -2.099946
     82          1           0       -4.595479   -2.029109   -3.080722
     83          1           0       -3.109643   -0.134322   -2.723331
     84          1           0       -0.906041    1.385492    2.640349
     85          1           0       -2.337802    1.557103    4.659948
     86          1           0       -4.634170    0.604767    4.640500
     87          1           0       -5.475174   -0.546979    2.599234
     88          1           0       -4.046741   -0.700946    0.587418
     89          1           0        3.362429   -1.797335   -1.777775
     90          1           0        6.530882   -2.701744   -3.447351
     91          1           0        5.779836   -3.857493   -2.345991
     92          1           0        4.771371   -2.918611   -3.452109
     93          1           0        7.640127   -1.524353   -1.510442
     94          1           0        8.220379    1.142375   -0.336768
     95          1           0        8.553009   -0.312382    0.603539
     96          1           0        7.559559    0.982598    1.295098
     97          1           0        5.173600    0.969471    0.952991
     98          1           0        2.478788    1.632671   -1.935057
     99          1           0        1.887292    3.661029   -3.188015
    100          1           0        1.684212    5.212918   -2.348035
    101          1           0        3.295393    4.643925   -2.782327
    102          1           0        2.450920    5.431163    0.067318
    103          1           0        1.725958    4.628686    3.055672
    104          1           0        3.351634    4.014535    3.370663
    105          1           0        3.129417    5.510691    2.447982
    106          1           0        2.878418    1.824557    2.333741
    107          1           0        1.410876   -3.782229    1.367351
    108          1           0        2.175324   -3.117230   -0.080953
    109          1           0        4.219182   -2.916463    1.006236
    110          1           0        3.539402   -3.607976    2.482298
    111          1           0        4.362373   -0.945555    2.342193
    112          1           0        3.051247   -1.473122    3.401048
 ---------------------------------------------------------------------

 SCF Done:  E(RwB97XD) =  -2529.39147412     A.U. after   16 cycles

 The electronic state is 1-A.
 Alpha  occ. eigenvalues --  -66.36571 -19.35728 -19.31871 -19.30539 -14.70523
 Alpha  occ. eigenvalues --  -14.69648 -14.57797 -10.50591 -10.46072 -10.44363
 Alpha  occ. eigenvalues --  -10.43128 -10.43032 -10.42099 -10.40827 -10.39849
 Alpha  occ. eigenvalues --  -10.39499 -10.38894 -10.38721 -10.38476 -10.38334
 Alpha  occ. eigenvalues --  -10.38332 -10.38294 -10.38265 -10.38250 -10.38195
 Alpha  occ. eigenvalues --  -10.38167 -10.38144 -10.38087 -10.38070 -10.38061
 Alpha  occ. eigenvalues --  -10.37506 -10.37108 -10.37019 -10.36830 -10.36789
 Alpha  occ. eigenvalues --  -10.36716 -10.36685 -10.36683 -10.36587 -10.36385
 Alpha  occ. eigenvalues --  -10.36297 -10.36252 -10.36216 -10.36073 -10.35942
 Alpha  occ. eigenvalues --  -10.35899 -10.35608 -10.35569 -10.34954 -10.34605
 Alpha  occ. eigenvalues --  -10.34570 -10.34491 -10.34043 -10.34042  -6.95863
 Alpha  occ. eigenvalues --   -5.49945  -3.84543  -3.84260  -3.84234  -1.38079
 Alpha  occ. eigenvalues --   -1.24740  -1.22609  -1.19698  -1.14286  -1.05827
 Alpha  occ. eigenvalues --   -1.05031  -1.04958  -1.03395  -1.03241  -1.03046
 Alpha  occ. eigenvalues --   -0.98325  -0.97690  -0.96542  -0.96353  -0.95996
 Alpha  occ. eigenvalues --   -0.94617  -0.94405  -0.94087  -0.94049  -0.93380
 Alpha  occ. eigenvalues --   -0.92874  -0.92517  -0.90956  -0.90934  -0.89484
 Alpha  occ. eigenvalues --   -0.88302  -0.87319  -0.87251  -0.86244  -0.86105
 Alpha  occ. eigenvalues --   -0.85680  -0.84520  -0.84318  -0.80943  -0.80158
 Alpha  occ. eigenvalues --   -0.79638  -0.79321  -0.79167  -0.78686  -0.78236
 Alpha  occ. eigenvalues --   -0.78198  -0.76787  -0.75535  -0.74940  -0.74592
 Alpha  occ. eigenvalues --   -0.73636  -0.72916  -0.72231  -0.71919  -0.71566
 Alpha  occ. eigenvalues --   -0.71432  -0.71203  -0.70557  -0.70519  -0.68782
 Alpha  occ. eigenvalues --   -0.67786  -0.67355  -0.66479  -0.66416  -0.65694
 Alpha  occ. eigenvalues --   -0.65307  -0.65032  -0.64496  -0.64171  -0.63870
 Alpha  occ. eigenvalues --   -0.63511  -0.63359  -0.63170  -0.62685  -0.62148
 Alpha  occ. eigenvalues --   -0.62012  -0.61716  -0.61232  -0.61067  -0.60779
 Alpha  occ. eigenvalues --   -0.60663  -0.60506  -0.60259  -0.59964  -0.59332
 Alpha  occ. eigenvalues --   -0.59179  -0.59076  -0.58984  -0.58647  -0.58236
 Alpha  occ. eigenvalues --   -0.57829  -0.57691  -0.57462  -0.57256  -0.57121
 Alpha  occ. eigenvalues --   -0.56847  -0.56652  -0.56193  -0.56092  -0.56082
 Alpha  occ. eigenvalues --   -0.55979  -0.55917  -0.55733  -0.55399  -0.55322
 Alpha  occ. eigenvalues --   -0.55244  -0.54588  -0.54398  -0.54303  -0.53886
 Alpha  occ. eigenvalues --   -0.53551  -0.52933  -0.52788  -0.52605  -0.52140
 Alpha  occ. eigenvalues --   -0.52048  -0.51966  -0.51933  -0.51743  -0.51333
 Alpha  occ. eigenvalues --   -0.51007  -0.50824  -0.50716  -0.50108  -0.50097
 Alpha  occ. eigenvalues --   -0.49854  -0.49554  -0.49024  -0.48738  -0.48511
 Alpha  occ. eigenvalues --   -0.48292  -0.48215  -0.46891  -0.46166  -0.45110
 Alpha  occ. eigenvalues --   -0.43378  -0.43329  -0.42489  -0.41976  -0.41561
 Alpha  occ. eigenvalues --   -0.40819  -0.40338  -0.39868  -0.38142  -0.37899
 Alpha  occ. eigenvalues --   -0.37870
 Alpha virt. eigenvalues --   -0.12158  -0.10180  -0.07177  -0.05513  -0.04457
 Alpha virt. eigenvalues --   -0.03512  -0.03164  -0.03014  -0.02711  -0.02575
 Alpha virt. eigenvalues --   -0.01220  -0.01120  -0.00280   0.00547   0.01222

 Mulliken charges:
               1
     1  C   -0.164618
     2  N   -0.402120
     3  B    0.756661
     4  C   -0.355738
     5  C    0.206226
     6  O   -0.416188
     7  C   -0.062087
     8  C   -0.299710
     9  C   -0.300451
    10  C   -0.142121
    11  C   -0.116243
    12  C   -0.118623
    13  C   -0.131360
    14  O   -0.436028
    15  C    0.083677
    16  C   -0.333601
    17  C   -0.278160
    18  N    0.101403
    19  N    0.086737
    20  Si   1.129733
    21  C   -0.655401
    22  C   -0.672080
    23  C   -0.369708
    24  C   -0.095227
    25  C   -0.097693
    26  C   -0.101697
    27  C   -0.091404
    28  C   -0.105031
    29  C   -0.061939
    30  C   -0.125217
    31  C   -0.097707
    32  C   -0.107670
    33  C   -0.108193
    34  C   -0.127238
    35  O   -0.424804
    36  C    0.124249
    37  C   -0.068432
    38  C   -0.102631
    39  C   -0.092500
    40  C   -0.286117
    41  C   -0.074364
    42  C   -0.100802
    43  C   -0.284505
    44  C   -0.084102
    45  C   -0.046766
    46  C   -0.072524
    47  C   -0.110705
    48  C   -0.280968
    49  C   -0.109813
    50  C   -0.105758
    51  C   -0.284393
    52  C   -0.123782
    53  C   -0.109090
    54  C   -0.278110
    55  C   -0.185989
    56  H    0.172091
    57  H    0.279529
    58  H    0.133193
    59  H    0.133013
    60  H    0.154889
    61  H    0.106933
    62  H    0.137919
    63  H    0.119419
    64  H    0.137156
    65  H    0.129710
    66  H    0.125677
    67  H    0.117685
    68  H    0.131780
    69  H    0.179841
    70  H    0.168277
    71  H    0.187219
    72  H    0.172648
    73  H    0.173774
    74  H    0.161399
    75  H    0.148549
    76  H    0.183803
    77  H    0.165455
    78  H    0.144857
    79  H    0.122184
    80  H    0.129036
    81  H    0.131783
    82  H    0.126261
    83  H    0.120806
    84  H    0.122644
    85  H    0.125715
    86  H    0.130774
    87  H    0.125078
    88  H    0.143660
    89  H    0.124377
    90  H    0.135590
    91  H    0.140635
    92  H    0.125443
    93  H    0.103361
    94  H    0.147434
    95  H    0.136460
    96  H    0.119487
    97  H    0.114294
    98  H    0.130344
    99  H    0.119366
   100  H    0.124178
   101  H    0.161579
   102  H    0.105123
   103  H    0.132083
   104  H    0.134952
   105  H    0.140797
   106  H    0.103276
   107  H    0.161276
   108  H    0.174497
   109  H    0.175998
   110  H    0.149847
   111  H    0.166595
   112  H    0.140977
 Sum of Mulliken charges =   1.00000

 Dipole moment (field-independent basis, Debye):
    X=             -4.7879    Y=              1.8021    Z=              2.2456  Tot=              5.5870
 Quadrupole moment (field-independent basis, Debye-Ang):
   XX=           -248.5451   YY=           -273.4552   ZZ=           -295.3625
   XY=             -0.5973   XZ=              3.3465   YZ=             -3.7886

 Normal termination of Gaussian 16 at Sat Dec  3 10:43:26 2022.
