 Gaussian 16, Revision B.01,
 Gaussian 16:  ES64L-G16RevB.01 20-Dec-2017

 ----------------------------------
 # wb97xd/6-311g(d,p) int=ultrafine
 ----------------------------------

 --------------------------
 ol17ryu_e_int2_SSR_6_2_spe
 --------------------------
 Symbolic Z-matrix:
 Charge =  1 Multiplicity = 1

                         Standard orientation:
 ---------------------------------------------------------------------
 Center     Atomic      Atomic             Coordinates (Angstroms)
 Number     Number       Type             X           Y           Z
 ---------------------------------------------------------------------
      1          6           0        1.874006    0.101181   -1.652014
      2          7           0        1.658788    1.426591   -0.983208
      3          5           0        0.757331    1.027607    0.311531
      4          6           0        0.874211    2.055140    1.530883
      5          6           0        0.717588    3.445719    1.344624
      6          8           0        0.486679    3.830246    0.039484
      7          6           0        0.380064    5.227581   -0.314519
      8          6           0       -0.296141    5.257064   -1.678401
      9          6           0        1.757902    5.888648   -0.332950
     10          6           0        0.776212    4.332982    2.425326
     11          6           0        0.997644    3.835129    3.713215
     12          6           0        1.162855    2.468759    3.927585
     13          6           0        1.098640    1.598420    2.835756
     14          8           0       -0.606097    0.924675   -0.304408
     15          6           0       -1.732209    1.517297    0.227077
     16          6           0       -2.673229    0.356443    0.834679
     17          6           0       -3.720873    0.870709    1.843692
     18          7           0       -1.771034   -0.476668    1.544037
     19          7           0       -1.033772   -1.164219    2.014728
     20         14           0       -3.536475   -0.921116   -0.486917
     21          6           0       -2.240453   -1.472307   -1.716400
     22          6           0       -4.998370    0.005067   -1.212105
     23          6           0       -4.076734   -2.342952    0.602363
     24          6           0       -5.302771   -2.312589    1.296737
     25          6           0       -5.686826   -3.363502    2.129611
     26          6           0       -4.850639   -4.471804    2.281904
     27          6           0       -3.635493   -4.527008    1.596653
     28          6           0       -3.251384   -3.473694    0.764848
     29          6           0       -2.491497    2.346812   -0.790407
     30          6           0       -2.272103    2.158024   -2.159408
     31          6           0       -2.975722    2.910753   -3.099670
     32          6           0       -3.902608    3.868684   -2.680369
     33          6           0       -4.102786    4.086057   -1.315050
     34          6           0       -3.394800    3.333981   -0.376283
     35          8           0        1.272162   -0.288203    0.615555
     36          6           0        1.983395   -0.916637   -0.448352
     37          6           0        3.431697   -1.178855    0.004350
     38          6           0        4.264206   -2.041550   -0.720245
     39          6           0        5.600339   -2.233253   -0.356438
     40          6           0        6.503275   -3.138325   -1.161767
     41          6           0        6.090886   -1.559149    0.769282
     42          6           0        5.271672   -0.724057    1.534501
     43          6           0        5.799868   -0.051947    2.780637
     44          6           0        3.939956   -0.543614    1.139520
     45          6           0        1.310840   -2.254328   -0.773378
     46          6           0        1.121923   -2.725162   -2.075544
     47          6           0        0.507227   -3.961798   -2.317808
     48          6           0        0.254360   -4.426782   -3.732455
     49          6           0        0.105695   -4.734433   -1.223988
     50          6           0        0.315989   -4.303797    0.092799
     51          6           0       -0.054829   -5.175828    1.269811
     52          6           0        0.913138   -3.057323    0.301580
     53          6           0        3.013117    2.062811   -0.806322
     54          6           0        3.955252    1.367226   -1.816341
     55          6           0        3.076890    0.337439   -2.567949
     56          1           0        0.957823   -0.127196   -2.198005
     57          1           0        1.080338    2.033911   -1.562681
     58          1           0       -0.271474    5.724439    0.416307
     59          1           0        0.304380    4.704037   -2.410632
     60          1           0       -0.391949    6.289682   -2.029076
     61          1           0       -1.289583    4.807039   -1.633456
     62          1           0        2.283603    5.758633    0.616767
     63          1           0        2.374006    5.455547   -1.129433
     64          1           0        1.660597    6.961840   -0.527998
     65          1           0        0.658844    5.400811    2.285002
     66          1           0        1.045863    4.530842    4.546476
     67          1           0        1.343964    2.086709    4.928016
     68          1           0        1.235583    0.530491    2.987507
     69          1           0       -1.491568    2.152212    1.090220
     70          1           0       -4.251229    0.046772    2.327290
     71          1           0       -3.255230    1.500057    2.609387
     72          1           0       -4.443715    1.473255    1.291885
     73          1           0       -2.588763   -2.380070   -2.222489
     74          1           0       -1.287122   -1.703309   -1.234861
     75          1           0       -2.055451   -0.706627   -2.472676
     76          1           0       -5.717788    0.321909   -0.450631
     77          1           0       -5.522879   -0.678096   -1.891708
     78          1           0       -4.689505    0.884533   -1.781970
     79          1           0       -5.976475   -1.466657    1.179294
     80          1           0       -6.638374   -3.322272    2.652063
     81          1           0       -5.149159   -5.293221    2.927069
     82          1           0       -2.988838   -5.392136    1.705265
     83          1           0       -2.307068   -3.545112    0.230471
     84          1           0       -1.534008    1.430091   -2.475263
     85          1           0       -2.795933    2.755627   -4.159742
     86          1           0       -4.450979    4.454878   -3.411773
     87          1           0       -4.798857    4.849833   -0.980740
     88          1           0       -3.528348    3.536575    0.683171
     89          1           0        3.867158   -2.587360   -1.572056
     90          1           0        7.077791   -3.808386   -0.512482
     91          1           0        7.228603   -2.556004   -1.744478
     92          1           0        5.933285   -3.755375   -1.863606
     93          1           0        7.129052   -1.702803    1.063417
     94          1           0        5.789155   -0.742813    3.633702
     95          1           0        5.193451    0.817274    3.056045
     96          1           0        6.835015    0.281442    2.649087
     97          1           0        3.288641    0.093745    1.726589
     98          1           0        1.447409   -2.135659   -2.929001
     99          1           0        1.048237   -4.097934   -4.411714
    100          1           0       -0.690755   -4.020107   -4.116904
    101          1           0        0.187869   -5.517562   -3.792201
    102          1           0       -0.364089   -5.700022   -1.399546
    103          1           0        0.842465   -5.586489    1.748825
    104          1           0       -0.597161   -4.608026    2.034347
    105          1           0       -0.679541   -6.021319    0.964155
    106          1           0        1.099651   -2.707368    1.311836
    107          1           0        2.896529    3.134815   -0.961159
    108          1           0        3.325727    1.900917    0.223784
    109          1           0        4.762899    0.863088   -1.281970
    110          1           0        4.406842    2.083591   -2.507868
    111          1           0        3.620009   -0.580793   -2.795720
    112          1           0        2.718946    0.754670   -3.516517
 ---------------------------------------------------------------------

 SCF Done:  E(RwB97XD) =  -2529.40218449     A.U. after   16 cycles

 The electronic state is 1-A.
 Alpha  occ. eigenvalues --  -66.36521 -19.35560 -19.32289 -19.30554 -14.74149
 Alpha  occ. eigenvalues --  -14.70940 -14.58224 -10.48880 -10.46767 -10.44373
 Alpha  occ. eigenvalues --  -10.42842 -10.42831 -10.42387 -10.41300 -10.40885
 Alpha  occ. eigenvalues --  -10.39840 -10.38937 -10.38725 -10.38625 -10.38585
 Alpha  occ. eigenvalues --  -10.38515 -10.38478 -10.38414 -10.38071 -10.37906
 Alpha  occ. eigenvalues --  -10.37894 -10.37877 -10.37843 -10.37771 -10.37732
 Alpha  occ. eigenvalues --  -10.37724 -10.37204 -10.36654 -10.36645 -10.36467
 Alpha  occ. eigenvalues --  -10.36427 -10.36422 -10.36408 -10.36378 -10.36344
 Alpha  occ. eigenvalues --  -10.35983 -10.35865 -10.35777 -10.35638 -10.35637
 Alpha  occ. eigenvalues --  -10.35577 -10.35418 -10.35414 -10.35051 -10.34690
 Alpha  occ. eigenvalues --  -10.34645 -10.34367 -10.34139 -10.34130  -6.96334
 Alpha  occ. eigenvalues --   -5.49850  -3.84478  -3.84159  -3.84110  -1.40046
 Alpha  occ. eigenvalues --   -1.24448  -1.22803  -1.20060  -1.14595  -1.09722
 Alpha  occ. eigenvalues --   -1.05887  -1.04776  -1.04641  -1.03188  -1.03030
 Alpha  occ. eigenvalues --   -0.98549  -0.97496  -0.96695  -0.96282  -0.96111
 Alpha  occ. eigenvalues --   -0.94736  -0.94524  -0.94179  -0.93885  -0.93363
 Alpha  occ. eigenvalues --   -0.92956  -0.92922  -0.92244  -0.90689  -0.90369
 Alpha  occ. eigenvalues --   -0.88016  -0.87937  -0.87173  -0.86988  -0.85805
 Alpha  occ. eigenvalues --   -0.85726  -0.84684  -0.84402  -0.80697  -0.80243
 Alpha  occ. eigenvalues --   -0.79748  -0.79227  -0.78940  -0.78659  -0.78160
 Alpha  occ. eigenvalues --   -0.77813  -0.76757  -0.76296  -0.74947  -0.74576
 Alpha  occ. eigenvalues --   -0.74325  -0.73779  -0.73196  -0.73019  -0.72020
 Alpha  occ. eigenvalues --   -0.71728  -0.70869  -0.70722  -0.70105  -0.69995
 Alpha  occ. eigenvalues --   -0.68203  -0.66999  -0.66517  -0.66098  -0.65653
 Alpha  occ. eigenvalues --   -0.64994  -0.64687  -0.64153  -0.63859  -0.63816
 Alpha  occ. eigenvalues --   -0.63456  -0.63302  -0.62897  -0.62465  -0.62101
 Alpha  occ. eigenvalues --   -0.62013  -0.61413  -0.61303  -0.61197  -0.60926
 Alpha  occ. eigenvalues --   -0.60777  -0.60635  -0.60364  -0.60036  -0.59674
 Alpha  occ. eigenvalues --   -0.59096  -0.58965  -0.58564  -0.58458  -0.57852
 Alpha  occ. eigenvalues --   -0.57553  -0.57437  -0.57418  -0.57131  -0.56909
 Alpha  occ. eigenvalues --   -0.56674  -0.56536  -0.56305  -0.56163  -0.56006
 Alpha  occ. eigenvalues --   -0.55854  -0.55753  -0.55555  -0.55324  -0.55292
 Alpha  occ. eigenvalues --   -0.54991  -0.54623  -0.54377  -0.54299  -0.53566
 Alpha  occ. eigenvalues --   -0.53357  -0.53057  -0.52833  -0.52681  -0.52366
 Alpha  occ. eigenvalues --   -0.52091  -0.52016  -0.51882  -0.51591  -0.51198
 Alpha  occ. eigenvalues --   -0.50787  -0.50577  -0.50366  -0.49930  -0.49733
 Alpha  occ. eigenvalues --   -0.49521  -0.49344  -0.48952  -0.48710  -0.48442
 Alpha  occ. eigenvalues --   -0.47988  -0.47915  -0.46979  -0.46394  -0.45298
 Alpha  occ. eigenvalues --   -0.43021  -0.42828  -0.42472  -0.42330  -0.42148
 Alpha  occ. eigenvalues --   -0.40602  -0.40120  -0.39417  -0.38243  -0.37987
 Alpha  occ. eigenvalues --   -0.37622
 Alpha virt. eigenvalues --   -0.11959  -0.11896  -0.05381  -0.04326  -0.04180
 Alpha virt. eigenvalues --   -0.03587  -0.02596  -0.02451  -0.02251  -0.01340
 Alpha virt. eigenvalues --   -0.00962  -0.00312   0.00207   0.01669   0.02591

 Mulliken charges:
               1
     1  C   -0.175222
     2  N   -0.417380
     3  B    0.690894
     4  C   -0.332876
     5  C    0.199990
     6  O   -0.411529
     7  C   -0.064461
     8  C   -0.288995
     9  C   -0.308721
    10  C   -0.144222
    11  C   -0.103343
    12  C   -0.109620
    13  C   -0.150050
    14  O   -0.450707
    15  C    0.111982
    16  C   -0.420072
    17  C   -0.273034
    18  N    0.207588
    19  N    0.100995
    20  Si   1.139325
    21  C   -0.646095
    22  C   -0.666220
    23  C   -0.402209
    24  C   -0.103110
    25  C   -0.098874
    26  C   -0.090500
    27  C   -0.115634
    28  C   -0.096875
    29  C   -0.077078
    30  C   -0.130459
    31  C   -0.102946
    32  C   -0.104345
    33  C   -0.096704
    34  C   -0.133781
    35  O   -0.421268
    36  C    0.124396
    37  C   -0.062897
    38  C   -0.083043
    39  C   -0.096526
    40  C   -0.285999
    41  C   -0.077302
    42  C   -0.098224
    43  C   -0.288272
    44  C   -0.099326
    45  C   -0.059182
    46  C   -0.135118
    47  C   -0.079925
    48  C   -0.285486
    49  C   -0.090473
    50  C   -0.117330
    51  C   -0.290118
    52  C   -0.072306
    53  C   -0.099149
    54  C   -0.283781
    55  C   -0.182152
    56  H    0.180751
    57  H    0.279169
    58  H    0.132762
    59  H    0.104638
    60  H    0.131831
    61  H    0.152792
    62  H    0.139880
    63  H    0.117017
    64  H    0.139378
    65  H    0.132305
    66  H    0.123922
    67  H    0.116520
    68  H    0.130777
    69  H    0.178156
    70  H    0.170163
    71  H    0.164828
    72  H    0.170984
    73  H    0.164709
    74  H    0.181262
    75  H    0.147778
    76  H    0.149557
    77  H    0.168829
    78  H    0.178039
    79  H    0.121777
    80  H    0.129004
    81  H    0.133036
    82  H    0.131342
    83  H    0.155019
    84  H    0.131947
    85  H    0.126197
    86  H    0.133095
    87  H    0.131011
    88  H    0.124420
    89  H    0.117277
    90  H    0.140639
    91  H    0.141414
    92  H    0.123161
    93  H    0.102934
    94  H    0.146227
    95  H    0.122943
    96  H    0.133386
    97  H    0.129668
    98  H    0.103183
    99  H    0.132380
   100  H    0.137460
   101  H    0.137373
   102  H    0.103068
   103  H    0.159857
   104  H    0.122371
   105  H    0.126689
   106  H    0.121870
   107  H    0.162342
   108  H    0.177052
   109  H    0.180363
   110  H    0.149601
   111  H    0.161881
   112  H    0.141734
 Sum of Mulliken charges =   1.00000

 Dipole moment (field-independent basis, Debye):
    X=             -5.1476    Y=              2.5461    Z=             -1.0784  Tot=              5.8432
 Quadrupole moment (field-independent basis, Debye-Ang):
   XX=           -255.6345   YY=           -262.7537   ZZ=           -292.1903
   XY=              0.9764   XZ=            -12.4879   YZ=             -6.3793

 Normal termination of Gaussian 16 at Fri Oct 28 12:05:37 2022.
