 Gaussian 16, Revision B.01,
 Gaussian 16:  ES64L-G16RevB.01 20-Dec-2017

 ----------------------------------
 # wb97xd/6-311g(d,p) int=ultrafine
 ----------------------------------

 ------------------------------
 ol17ryu_e_int2_SSR_C_1_TSe_spe
 ------------------------------
 Symbolic Z-matrix:
 Charge =  1 Multiplicity = 1

                         Standard orientation:
 ---------------------------------------------------------------------
 Center     Atomic      Atomic             Coordinates (Angstroms)
 Number     Number       Type             X           Y           Z
 ---------------------------------------------------------------------
      1          6           0        1.832500    0.131194   -1.652919
      2          7           0        1.557444    1.445698   -0.984369
      3          5           0        0.671893    1.005963    0.314257
      4          6           0        0.761924    2.032660    1.539909
      5          6           0        0.574589    3.421373    1.367065
      6          8           0        0.352888    3.817266    0.063293
      7          6           0        0.245524    5.217740   -0.278321
      8          6           0       -0.373357    5.254691   -1.668923
      9          6           0        1.612664    5.900634   -0.236119
     10          6           0        0.594251    4.297765    2.458178
     11          6           0        0.815591    3.793091    3.743258
     12          6           0        1.018714    2.429865    3.944257
     13          6           0        0.987391    1.570119    2.842845
     14          8           0       -0.693026    0.850524   -0.284411
     15          6           0       -1.824925    1.466084    0.224903
     16          6           0       -2.835405    0.397166    0.681008
     17          6           0       -3.851002    0.833832    1.707258
     18          7           0       -1.690316   -0.604021    1.718445
     19          7           0       -0.983202   -1.283657    2.224862
     20         14           0       -3.465898   -1.041057   -0.537661
     21          6           0       -2.102431   -1.590683   -1.690028
     22          6           0       -4.947971   -0.256519   -1.393889
     23          6           0       -3.985435   -2.433035    0.603644
     24          6           0       -5.235728   -2.427966    1.252940
     25          6           0       -5.605961   -3.460388    2.115556
     26          6           0       -4.731410   -4.525160    2.341507
     27          6           0       -3.492253   -4.556840    1.698238
     28          6           0       -3.123393   -3.522545    0.836937
     29          6           0       -2.553086    2.321630   -0.815418
     30          6           0       -2.318711    2.109311   -2.178557
     31          6           0       -2.987221    2.872323   -3.136262
     32          6           0       -3.897023    3.855857   -2.739780
     33          6           0       -4.119109    4.086969   -1.379605
     34          6           0       -3.446942    3.325714   -0.422826
     35          8           0        1.235801   -0.291786    0.606625
     36          6           0        1.989522   -0.879425   -0.449155
     37          6           0        3.446738   -1.063773    0.014591
     38          6           0        4.332374   -1.876134   -0.704285
     39          6           0        5.675288   -1.990885   -0.331166
     40          6           0        6.621229   -2.880255   -1.103884
     41          6           0        6.120274   -1.285088    0.793467
     42          6           0        5.248334   -0.500309    1.554604
     43          6           0        5.731927    0.208819    2.798355
     44          6           0        3.910645   -0.400486    1.153289
     45          6           0        1.393311   -2.250570   -0.783213
     46          6           0        1.264984   -2.733679   -2.087838
     47          6           0        0.712643   -3.996929   -2.343143
     48          6           0        0.525227   -4.477189   -3.763022
     49          6           0        0.310602   -4.781658   -1.258826
     50          6           0        0.461382   -4.337449    0.061918
     51          6           0        0.094561   -5.226137    1.227887
     52          6           0        0.998003   -3.066250    0.283298
     53          6           0        2.882724    2.142440   -0.811026
     54          6           0        3.855024    1.487278   -1.819045
     55          6           0        3.021960    0.421176   -2.570820
     56          1           0        0.927124   -0.141623   -2.197047
     57          1           0        0.952734    2.025714   -1.564884
     58          1           0       -0.441926    5.697794    0.430898
     59          1           0        0.268015    4.723489   -2.382459
     60          1           0       -0.473534    6.290284   -2.009414
     61          1           0       -1.359114    4.786835   -1.672353
     62          1           0        2.109461    5.761142    0.727408
     63          1           0        2.263107    5.496069   -1.019962
     64          1           0        1.501923    6.975675   -0.413073
     65          1           0        0.447052    5.363134    2.327565
     66          1           0        0.834591    4.480802    4.584296
     67          1           0        1.202371    2.041990    4.941986
     68          1           0        1.153497    0.505217    2.985629
     69          1           0       -1.589074    2.099501    1.090051
     70          1           0       -4.339062   -0.017145    2.188461
     71          1           0       -3.429413    1.503722    2.462878
     72          1           0       -4.621408    1.385376    1.155986
     73          1           0       -2.398970   -2.522795   -2.184473
     74          1           0       -1.168525   -1.775108   -1.155372
     75          1           0       -1.902429   -0.842230   -2.460280
     76          1           0       -5.724880    0.055808   -0.688339
     77          1           0       -5.393946   -1.001936   -2.063315
     78          1           0       -4.658349    0.612035   -1.991873
     79          1           0       -5.940616   -1.618247    1.076518
     80          1           0       -6.576288   -3.438310    2.603541
     81          1           0       -5.018088   -5.331641    3.010454
     82          1           0       -2.814794   -5.388914    1.863479
     83          1           0       -2.158164   -3.573657    0.338689
     84          1           0       -1.596639    1.357253   -2.474693
     85          1           0       -2.795043    2.702937   -4.191912
     86          1           0       -4.418637    4.448901   -3.485043
     87          1           0       -4.805551    4.867161   -1.063974
     88          1           0       -3.602511    3.531241    0.633281
     89          1           0        3.974498   -2.441893   -1.560386
     90          1           0        6.774529   -3.835023   -0.584663
     91          1           0        7.605963   -2.413702   -1.217540
     92          1           0        6.236194   -3.108490   -2.103016
     93          1           0        7.165106   -1.361303    1.089185
     94          1           0        5.793162   -0.484681    3.647086
     95          1           0        5.055927    1.020619    3.086562
     96          1           0        6.732510    0.631703    2.655817
     97          1           0        3.220720    0.200723    1.734053
     98          1           0        1.587494   -2.131599   -2.933705
     99          1           0        1.332485   -4.126873   -4.415344
    100          1           0       -0.417649   -4.102914   -4.183927
    101          1           0        0.495803   -5.569830   -3.818057
    102          1           0       -0.113891   -5.766304   -1.443818
    103          1           0        0.987586   -5.704345    1.649438
    104          1           0       -0.377462   -4.655636    2.035472
    105          1           0       -0.590624   -6.024928    0.925422
    106          1           0        1.133940   -2.702934    1.296870
    107          1           0        2.718272    3.206986   -0.970181
    108          1           0        3.202772    1.999043    0.219470
    109          1           0        4.682780    1.017899   -1.283857
    110          1           0        4.276569    2.222086   -2.510252
    111          1           0        3.604887   -0.471818   -2.800558
    112          1           0        2.644609    0.823290   -3.518455
 ---------------------------------------------------------------------

 SCF Done:  E(RwB97XD) =  -2529.39339118     A.U. after   18 cycles

 The electronic state is 1-A.
 Alpha  occ. eigenvalues --  -66.36001 -19.35596 -19.32158 -19.30280 -14.69654
 Alpha  occ. eigenvalues --  -14.68960 -14.58115 -10.50961 -10.46358 -10.44203
 Alpha  occ. eigenvalues --  -10.42926 -10.42834 -10.42271 -10.41434 -10.40767
 Alpha  occ. eigenvalues --  -10.40516 -10.39360 -10.38974 -10.38967 -10.38895
 Alpha  occ. eigenvalues --  -10.38763 -10.38660 -10.38322 -10.37974 -10.37826
 Alpha  occ. eigenvalues --  -10.37817 -10.37791 -10.37743 -10.37554 -10.37543
 Alpha  occ. eigenvalues --  -10.37529 -10.37104 -10.36654 -10.36526 -10.36436
 Alpha  occ. eigenvalues --  -10.36375 -10.36354 -10.36332 -10.36266 -10.36247
 Alpha  occ. eigenvalues --  -10.35778 -10.35682 -10.35638 -10.35609 -10.35533
 Alpha  occ. eigenvalues --  -10.35525 -10.35466 -10.35255 -10.34939 -10.34572
 Alpha  occ. eigenvalues --  -10.34560 -10.34374 -10.34059 -10.34057  -6.96287
 Alpha  occ. eigenvalues --   -5.49381  -3.83972  -3.83710  -3.83658  -1.37370
 Alpha  occ. eigenvalues --   -1.24459  -1.22515  -1.19791  -1.14444  -1.06595
 Alpha  occ. eigenvalues --   -1.04766  -1.04461  -1.03647  -1.03090  -1.03003
 Alpha  occ. eigenvalues --   -0.98395  -0.97552  -0.96356  -0.96140  -0.95933
 Alpha  occ. eigenvalues --   -0.94880  -0.94643  -0.93973  -0.93765  -0.93233
 Alpha  occ. eigenvalues --   -0.92832  -0.92242  -0.90721  -0.90293  -0.89945
 Alpha  occ. eigenvalues --   -0.87834  -0.87244  -0.86918  -0.85950  -0.85595
 Alpha  occ. eigenvalues --   -0.85573  -0.84578  -0.84298  -0.80700  -0.80522
 Alpha  occ. eigenvalues --   -0.79647  -0.78905  -0.78846  -0.78579  -0.78213
 Alpha  occ. eigenvalues --   -0.77797  -0.76634  -0.76181  -0.74732  -0.74416
 Alpha  occ. eigenvalues --   -0.73691  -0.72968  -0.72504  -0.72054  -0.71617
 Alpha  occ. eigenvalues --   -0.70909  -0.70343  -0.70231  -0.69591  -0.68937
 Alpha  occ. eigenvalues --   -0.68239  -0.67017  -0.66693  -0.66320  -0.65546
 Alpha  occ. eigenvalues --   -0.65008  -0.64912  -0.64503  -0.63977  -0.63751
 Alpha  occ. eigenvalues --   -0.63620  -0.63389  -0.62986  -0.62813  -0.62282
 Alpha  occ. eigenvalues --   -0.62002  -0.61659  -0.61528  -0.61155  -0.60890
 Alpha  occ. eigenvalues --   -0.60838  -0.60606  -0.60435  -0.60276  -0.59761
 Alpha  occ. eigenvalues --   -0.59136  -0.58979  -0.58582  -0.58342  -0.57751
 Alpha  occ. eigenvalues --   -0.57426  -0.57400  -0.57242  -0.57072  -0.56787
 Alpha  occ. eigenvalues --   -0.56553  -0.56481  -0.56415  -0.56140  -0.56035
 Alpha  occ. eigenvalues --   -0.55920  -0.55729  -0.55442  -0.55350  -0.55213
 Alpha  occ. eigenvalues --   -0.54893  -0.54674  -0.54423  -0.54292  -0.53668
 Alpha  occ. eigenvalues --   -0.53265  -0.53123  -0.52853  -0.52749  -0.52483
 Alpha  occ. eigenvalues --   -0.52043  -0.51981  -0.51963  -0.51712  -0.51125
 Alpha  occ. eigenvalues --   -0.50748  -0.50597  -0.50282  -0.50010  -0.49700
 Alpha  occ. eigenvalues --   -0.49355  -0.49187  -0.48961  -0.48596  -0.48347
 Alpha  occ. eigenvalues --   -0.47970  -0.47928  -0.46887  -0.46164  -0.45295
 Alpha  occ. eigenvalues --   -0.43327  -0.43038  -0.42393  -0.42238  -0.42204
 Alpha  occ. eigenvalues --   -0.40559  -0.39937  -0.39250  -0.38139  -0.37873
 Alpha  occ. eigenvalues --   -0.37637
 Alpha virt. eigenvalues --   -0.12086  -0.09300  -0.08040  -0.04996  -0.04604
 Alpha virt. eigenvalues --   -0.03492  -0.03295  -0.02512  -0.02408  -0.01993
 Alpha virt. eigenvalues --   -0.01274  -0.00911  -0.00207   0.00219   0.01566

 Mulliken charges:
               1
     1  C   -0.176466
     2  N   -0.419291
     3  B    0.695485
     4  C   -0.330158
     5  C    0.198198
     6  O   -0.412708
     7  C   -0.063546
     8  C   -0.288959
     9  C   -0.310231
    10  C   -0.145872
    11  C   -0.103463
    12  C   -0.109210
    13  C   -0.153384
    14  O   -0.447958
    15  C    0.118648
    16  C   -0.296911
    17  C   -0.275992
    18  N    0.076556
    19  N    0.099981
    20  Si   1.145446
    21  C   -0.644730
    22  C   -0.668429
    23  C   -0.401383
    24  C   -0.107285
    25  C   -0.099895
    26  C   -0.090084
    27  C   -0.115187
    28  C   -0.099497
    29  C   -0.100851
    30  C   -0.125471
    31  C   -0.104301
    32  C   -0.100793
    33  C   -0.098326
    34  C   -0.120440
    35  O   -0.421783
    36  C    0.125240
    37  C   -0.059888
    38  C   -0.084017
    39  C   -0.097808
    40  C   -0.282887
    41  C   -0.076911
    42  C   -0.098908
    43  C   -0.288738
    44  C   -0.097493
    45  C   -0.060646
    46  C   -0.130704
    47  C   -0.079058
    48  C   -0.285992
    49  C   -0.087745
    50  C   -0.117039
    51  C   -0.289765
    52  C   -0.077640
    53  C   -0.097613
    54  C   -0.284001
    55  C   -0.182125
    56  H    0.179620
    57  H    0.278139
    58  H    0.132506
    59  H    0.105165
    60  H    0.132371
    61  H    0.150951
    62  H    0.141424
    63  H    0.117901
    64  H    0.139374
    65  H    0.132524
    66  H    0.123731
    67  H    0.116492
    68  H    0.131803
    69  H    0.181707
    70  H    0.176616
    71  H    0.169604
    72  H    0.185403
    73  H    0.163757
    74  H    0.181775
    75  H    0.143372
    76  H    0.145709
    77  H    0.168749
    78  H    0.171618
    79  H    0.120777
    80  H    0.128404
    81  H    0.132604
    82  H    0.130547
    83  H    0.154616
    84  H    0.133141
    85  H    0.127876
    86  H    0.134685
    87  H    0.132548
    88  H    0.124539
    89  H    0.116700
    90  H    0.148403
    91  H    0.134696
    92  H    0.119852
    93  H    0.102665
    94  H    0.146032
    95  H    0.122466
    96  H    0.133391
    97  H    0.129521
    98  H    0.102843
    99  H    0.132067
   100  H    0.137422
   101  H    0.136729
   102  H    0.103064
   103  H    0.160517
   104  H    0.120098
   105  H    0.126746
   106  H    0.120344
   107  H    0.160123
   108  H    0.176879
   109  H    0.180721
   110  H    0.148847
   111  H    0.160809
   112  H    0.141045
 Sum of Mulliken charges =   1.00000

 Dipole moment (field-independent basis, Debye):
    X=             -5.7001    Y=              3.0032    Z=             -1.1774  Tot=              6.5496
 Quadrupole moment (field-independent basis, Debye-Ang):
   XX=           -255.2798   YY=           -261.7009   ZZ=           -291.8503
   XY=             -1.3401   XZ=            -11.9984   YZ=             -6.9754

 Normal termination of Gaussian 16 at Sat Dec  3 14:50:11 2022.
