 Gaussian 16, Revision B.01,
 Gaussian 16:  ES64L-G16RevB.01 20-Dec-2017

 ----------------------------------
 # wb97xd/6-311g(d,p) int=ultrafine
 ----------------------------------

 ---------------------------------
 ol17ryu_e_int2_SSR_11_TS1_TS1_spe
 ---------------------------------
 Symbolic Z-matrix:
 Charge =  1 Multiplicity = 1

                         Standard orientation:
 ---------------------------------------------------------------------
 Center     Atomic      Atomic             Coordinates (Angstroms)
 Number     Number       Type             X           Y           Z
 ---------------------------------------------------------------------
      1          6           0        2.756833   -0.901696    1.706586
      2          7           0        1.283001   -1.212462    1.925303
      3          5           0        0.599351   -1.040971    0.397240
      4          6           0       -0.281813   -2.283589   -0.081288
      5          6           0       -1.377831   -2.764992    0.669190
      6          8           0       -1.667713   -2.027521    1.794282
      7          6           0       -2.725201   -2.423964    2.697381
      8          6           0       -4.101072   -2.082879    2.125839
      9          6           0       -2.448805   -1.671229    3.993296
     10          6           0       -2.065893   -3.922306    0.288086
     11          6           0       -1.688323   -4.593961   -0.877991
     12          6           0       -0.637055   -4.121512   -1.661180
     13          6           0        0.059669   -2.983337   -1.246206
     14          8           0       -0.169548    0.251647    0.606265
     15          6           0       -1.424035    0.501684    0.300997
     16          6           0       -1.383825    1.370334   -1.530153
     17          6           0       -0.322437    0.589466   -2.313071
     18          7           0       -0.972903    2.610514   -1.189293
     19          7           0       -0.724157    3.616699   -0.745605
     20         14           0       -3.147690    1.467130   -2.404620
     21          6           0       -2.798798    1.479612   -4.253139
     22          6           0       -3.974169    3.063047   -1.857688
     23          6           0       -4.126826   -0.057825   -1.924208
     24          6           0       -5.425069    0.073246   -1.392685
     25          6           0       -6.202607   -1.047731   -1.098766
     26          6           0       -5.696506   -2.327654   -1.334815
     27          6           0       -4.411924   -2.481121   -1.860333
     28          6           0       -3.636077   -1.358254   -2.150351
     29          6           0       -2.104025    1.469470    1.193267
     30          6           0       -1.348477    2.372632    1.959130
     31          6           0       -1.986887    3.273080    2.812043
     32          6           0       -3.379301    3.279125    2.911377
     33          6           0       -4.136656    2.379491    2.153242
     34          6           0       -3.504016    1.483055    1.295179
     35          8           0        1.766701   -0.821860   -0.404718
     36          6           0        2.834531   -0.209798    0.319154
     37          6           0        4.170539   -0.525364   -0.352185
     38          6           0        5.339437    0.072611    0.138427
     39          6           0        6.585492   -0.232471   -0.410513
     40          6           0        7.849680    0.409787    0.110260
     41          6           0        6.641256   -1.146349   -1.473879
     42          6           0        5.489835   -1.744945   -1.987718
     43          6           0        5.561788   -2.698920   -3.157117
     44          6           0        4.250982   -1.428779   -1.408633
     45          6           0        2.630455    1.316828    0.353601
     46          6           0        2.696430    1.994421   -0.871867
     47          6           0        2.483347    3.370143   -0.958761
     48          6           0        2.559495    4.089657   -2.284834
     49          6           0        2.201161    4.078845    0.218052
     50          6           0        2.141889    3.437597    1.457008
     51          6           0        1.854282    4.221321    2.716764
     52          6           0        2.359452    2.052065    1.507584
     53          6           0        1.202687   -2.548521    2.643395
     54          6           0        2.650800   -2.922003    2.969456
     55          6           0        3.424087   -2.274001    1.818736
     56          1           0        3.117020   -0.261813    2.514389
     57          1           0        0.844847   -0.490281    2.496242
     58          1           0       -2.640939   -3.504566    2.874658
     59          1           0       -4.234409   -0.998120    2.097266
     60          1           0       -4.885691   -2.505919    2.762472
     61          1           0       -4.234745   -2.467579    1.112321
     62          1           0       -1.488935   -1.967873    4.427757
     63          1           0       -2.429456   -0.592990    3.799726
     64          1           0       -3.233677   -1.877545    4.727674
     65          1           0       -2.890849   -4.304914    0.876186
     66          1           0       -2.226356   -5.492981   -1.167228
     67          1           0       -0.347551   -4.645103   -2.567468
     68          1           0        0.906707   -2.627762   -1.826027
     69          1           0       -2.027763   -0.332177   -0.057891
     70          1           0       -0.193244    0.993498   -3.321651
     71          1           0        0.634674    0.588008   -1.794589
     72          1           0       -0.652029   -0.448730   -2.392778
     73          1           0       -3.744330    1.600968   -4.794760
     74          1           0       -2.344956    0.542225   -4.590905
     75          1           0       -2.139024    2.305828   -4.542628
     76          1           0       -4.112674    3.116592   -0.773613
     77          1           0       -4.958338    3.155228   -2.331291
     78          1           0       -3.386887    3.934708   -2.168845
     79          1           0       -5.839487    1.061182   -1.206343
     80          1           0       -7.202799   -0.922276   -0.693631
     81          1           0       -6.302358   -3.201865   -1.113206
     82          1           0       -4.006722   -3.470963   -2.040235
     83          1           0       -2.641374   -1.514378   -2.560601
     84          1           0       -0.267947    2.353864    1.883986
     85          1           0       -1.394062    3.968694    3.398883
     86          1           0       -3.874875    3.977291    3.579657
     87          1           0       -5.219587    2.372382    2.237254
     88          1           0       -4.091298    0.784774    0.709497
     89          1           0        5.274762    0.794151    0.950030
     90          1           0        8.309103    1.051190   -0.651953
     91          1           0        7.655338    1.028151    0.992178
     92          1           0        8.595339   -0.345676    0.384866
     93          1           0        7.607993   -1.390766   -1.910127
     94          1           0        4.844301   -3.519965   -3.048924
     95          1           0        6.560954   -3.133116   -3.262435
     96          1           0        5.326871   -2.185209   -4.098630
     97          1           0        3.343395   -1.890978   -1.781475
     98          1           0        2.932104    1.429879   -1.770006
     99          1           0        3.476454    4.687504   -2.356393
    100          1           0        1.717057    4.779603   -2.413228
    101          1           0        2.558841    3.387719   -3.124824
    102          1           0        2.025633    5.151423    0.164712
    103          1           0        1.104632    5.000043    2.537839
    104          1           0        1.487364    3.574204    3.521207
    105          1           0        2.757882    4.721539    3.087362
    106          1           0        2.293559    1.565654    2.477022
    107          1           0        0.548986   -2.450973    3.509373
    108          1           0        0.759626   -3.266930    1.955488
    109          1           0        2.785101   -4.005651    3.025954
    110          1           0        2.960657   -2.493988    3.930582
    111          1           0        3.280510   -2.833296    0.887907
    112          1           0        4.497477   -2.184149    1.994194
 ---------------------------------------------------------------------

 SCF Done:  E(RwB97XD) =  -2529.38540400     A.U. after   16 cycles

 The electronic state is 1-A.
 Alpha  occ. eigenvalues --  -66.35827 -19.35992 -19.35383 -19.31616 -14.71210
 Alpha  occ. eigenvalues --  -14.66337 -14.59093 -10.49236 -10.45919 -10.44619
 Alpha  occ. eigenvalues --  -10.43378 -10.43274 -10.42745 -10.41662 -10.40066
 Alpha  occ. eigenvalues --  -10.39070 -10.38891 -10.38795 -10.38775 -10.38697
 Alpha  occ. eigenvalues --  -10.38572 -10.38527 -10.38483 -10.38284 -10.38177
 Alpha  occ. eigenvalues --  -10.38017 -10.37986 -10.37913 -10.37889 -10.37872
 Alpha  occ. eigenvalues --  -10.37727 -10.37473 -10.37290 -10.37091 -10.36928
 Alpha  occ. eigenvalues --  -10.36883 -10.36803 -10.36450 -10.36400 -10.36369
 Alpha  occ. eigenvalues --  -10.36286 -10.36253 -10.36190 -10.36129 -10.36094
 Alpha  occ. eigenvalues --  -10.35782 -10.35777 -10.35618 -10.35134 -10.35047
 Alpha  occ. eigenvalues --  -10.34869 -10.34621 -10.34205 -10.34139  -6.98038
 Alpha  occ. eigenvalues --   -5.49159  -3.83741  -3.83490  -3.83454  -1.36073
 Alpha  occ. eigenvalues --   -1.25813  -1.24805  -1.21438  -1.14788  -1.07966
 Alpha  occ. eigenvalues --   -1.06087  -1.05083  -1.04710  -1.03635  -1.03336
 Alpha  occ. eigenvalues --   -0.99055  -0.97980  -0.97596  -0.96806  -0.96651
 Alpha  occ. eigenvalues --   -0.94790  -0.94745  -0.94020  -0.93901  -0.93763
 Alpha  occ. eigenvalues --   -0.92977  -0.92736  -0.91298  -0.91186  -0.90231
 Alpha  occ. eigenvalues --   -0.87634  -0.87561  -0.87508  -0.87200  -0.86264
 Alpha  occ. eigenvalues --   -0.85776  -0.84712  -0.84420  -0.81255  -0.80569
 Alpha  occ. eigenvalues --   -0.80116  -0.78961  -0.78909  -0.78809  -0.78526
 Alpha  occ. eigenvalues --   -0.77812  -0.76660  -0.75144  -0.75000  -0.74621
 Alpha  occ. eigenvalues --   -0.73812  -0.73583  -0.72878  -0.72824  -0.71917
 Alpha  occ. eigenvalues --   -0.71443  -0.70984  -0.70763  -0.69875  -0.69218
 Alpha  occ. eigenvalues --   -0.68030  -0.67274  -0.66830  -0.65798  -0.65470
 Alpha  occ. eigenvalues --   -0.65246  -0.64615  -0.64495  -0.64283  -0.64001
 Alpha  occ. eigenvalues --   -0.63507  -0.62973  -0.62849  -0.62769  -0.62550
 Alpha  occ. eigenvalues --   -0.62377  -0.61756  -0.61660  -0.61210  -0.61101
 Alpha  occ. eigenvalues --   -0.60863  -0.60064  -0.59944  -0.59711  -0.59310
 Alpha  occ. eigenvalues --   -0.58938  -0.58581  -0.58362  -0.58149  -0.58007
 Alpha  occ. eigenvalues --   -0.57816  -0.57488  -0.57384  -0.57226  -0.57159
 Alpha  occ. eigenvalues --   -0.56920  -0.56875  -0.56668  -0.56234  -0.56178
 Alpha  occ. eigenvalues --   -0.56114  -0.55998  -0.55779  -0.55572  -0.55500
 Alpha  occ. eigenvalues --   -0.55294  -0.54784  -0.54464  -0.54329  -0.54155
 Alpha  occ. eigenvalues --   -0.53631  -0.53483  -0.53299  -0.52934  -0.52619
 Alpha  occ. eigenvalues --   -0.52462  -0.52040  -0.51829  -0.51735  -0.51483
 Alpha  occ. eigenvalues --   -0.51375  -0.51211  -0.50707  -0.50690  -0.50224
 Alpha  occ. eigenvalues --   -0.49867  -0.49293  -0.49061  -0.49018  -0.48579
 Alpha  occ. eigenvalues --   -0.48412  -0.47944  -0.47250  -0.46981  -0.45181
 Alpha  occ. eigenvalues --   -0.43708  -0.42864  -0.42366  -0.42282  -0.41256
 Alpha  occ. eigenvalues --   -0.40936  -0.40173  -0.40026  -0.38384  -0.38212
 Alpha  occ. eigenvalues --   -0.37997
 Alpha virt. eigenvalues --   -0.10913  -0.09884  -0.05364  -0.05033  -0.04066
 Alpha virt. eigenvalues --   -0.03689  -0.03224  -0.03036  -0.02524  -0.01314
 Alpha virt. eigenvalues --   -0.01057  -0.00456   0.00230   0.01857   0.02578

 Mulliken charges:
               1
     1  C   -0.056531
     2  N   -0.480669
     3  B    0.807751
     4  C   -0.350483
     5  C    0.184356
     6  O   -0.402319
     7  C   -0.055741
     8  C   -0.310006
     9  C   -0.305391
    10  C   -0.135679
    11  C   -0.121571
    12  C   -0.115036
    13  C   -0.129104
    14  O   -0.378610
    15  C    0.161059
    16  C   -0.530717
    17  C   -0.289480
    18  N    0.196397
    19  N    0.006951
    20  Si   1.149685
    21  C   -0.650109
    22  C   -0.685998
    23  C   -0.383369
    24  C   -0.122434
    25  C   -0.085216
    26  C   -0.113673
    27  C   -0.103090
    28  C   -0.085194
    29  C   -0.134699
    30  C   -0.061171
    31  C   -0.127687
    32  C   -0.076274
    33  C   -0.120551
    34  C   -0.121317
    35  O   -0.403031
    36  C    0.085760
    37  C   -0.182072
    38  C   -0.052712
    39  C   -0.106017
    40  C   -0.285365
    41  C   -0.066474
    42  C   -0.103520
    43  C   -0.288021
    44  C   -0.060601
    45  C    0.008248
    46  C   -0.060358
    47  C   -0.130924
    48  C   -0.280548
    49  C   -0.076505
    50  C   -0.135455
    51  C   -0.291268
    52  C   -0.101764
    53  C   -0.071982
    54  C   -0.268392
    55  C   -0.207124
    56  H    0.170930
    57  H    0.270768
    58  H    0.136421
    59  H    0.121129
    60  H    0.134500
    61  H    0.136471
    62  H    0.117635
    63  H    0.135658
    64  H    0.136607
    65  H    0.133152
    66  H    0.127808
    67  H    0.116924
    68  H    0.142662
    69  H    0.187876
    70  H    0.159978
    71  H    0.182237
    72  H    0.152330
    73  H    0.167721
    74  H    0.158195
    75  H    0.150001
    76  H    0.167549
    77  H    0.167716
    78  H    0.156658
    79  H    0.129126
    80  H    0.126850
    81  H    0.130205
    82  H    0.130350
    83  H    0.131080
    84  H    0.160957
    85  H    0.128960
    86  H    0.134162
    87  H    0.126629
    88  H    0.154769
    89  H    0.102944
    90  H    0.144664
    91  H    0.119624
    92  H    0.140205
    93  H    0.103616
    94  H    0.126714
    95  H    0.131252
    96  H    0.142573
    97  H    0.124525
    98  H    0.125753
    99  H    0.157688
   100  H    0.124402
   101  H    0.123601
   102  H    0.105040
   103  H    0.135960
   104  H    0.114196
   105  H    0.160042
   106  H    0.082343
   107  H    0.152776
   108  H    0.177231
   109  H    0.159314
   110  H    0.136140
   111  H    0.161366
   112  H    0.168061
 Sum of Mulliken charges =   1.00000

 Dipole moment (field-independent basis, Debye):
    X=             -3.7330    Y=              0.9582    Z=              2.1868  Tot=              4.4312
 Quadrupole moment (field-independent basis, Debye-Ang):
   XX=           -251.4160   YY=           -281.0407   ZZ=           -286.5597
   XY=             -2.0240   XZ=              1.1713   YZ=             -4.1344

 Normal termination of Gaussian 16 at Fri Dec  9 03:17:48 2022.
