 Gaussian 16, Revision B.01,
 Gaussian 16:  ES64L-G16RevB.01 20-Dec-2017

 ----------------------------------
 # wb97xd/6-311g(d,p) int=ultrafine
 ----------------------------------

 ------------------------------
 ol17ryu_e_int2_SSR_O_1_TSe_spe
 ------------------------------
 Symbolic Z-matrix:
 Charge =  1 Multiplicity = 1

                         Standard orientation:
 ---------------------------------------------------------------------
 Center     Atomic      Atomic             Coordinates (Angstroms)
 Number     Number       Type             X           Y           Z
 ---------------------------------------------------------------------
      1          6           0        1.383323   -0.054258   -1.445798
      2          7           0        0.434622    1.103515   -1.540200
      3          5           0       -0.188710    1.208124   -0.040537
      4          6           0       -0.657553    2.688497    0.341252
      5          6           0       -1.570745    3.390371   -0.470273
      6          8           0       -1.923217    2.740768   -1.642247
      7          6           0       -2.911014    3.299086   -2.524817
      8          6           0       -4.318340    3.094729   -1.964025
      9          6           0       -2.713535    2.589426   -3.858961
     10          6           0       -2.046514    4.653831   -0.105357
     11          6           0       -1.605156    5.234667    1.089177
     12          6           0       -0.698081    4.567229    1.907981
     13          6           0       -0.236008    3.305207    1.523635
     14          8           0       -1.367873    0.265046   -0.119437
     15          6           0       -1.619979   -0.578406    0.965082
     16          6           0       -2.813091   -1.376057    0.364966
     17          6           0       -4.008835   -0.553733   -0.049595
     18          7           0       -3.470351   -2.195736    1.814789
     19          7           0       -3.932486   -2.812880    2.606436
     20         14           0       -2.367410   -2.981499   -0.695622
     21          6           0       -4.007250   -3.780333   -1.156254
     22          6           0       -1.322428   -4.087348    0.402135
     23          6           0       -1.423541   -2.413721   -2.210395
     24          6           0       -0.288539   -3.139772   -2.616916
     25          6           0        0.395830   -2.809628   -3.789096
     26          6           0       -0.036610   -1.738175   -4.571034
     27          6           0       -1.155189   -0.996311   -4.177785
     28          6           0       -1.842975   -1.335796   -3.012934
     29          6           0       -1.934885    0.082935    2.298429
     30          6           0       -1.482567   -0.531242    3.474018
     31          6           0       -1.784872    0.015685    4.721011
     32          6           0       -2.533100    1.192682    4.801458
     33          6           0       -2.970945    1.820080    3.632766
     34          6           0       -2.675492    1.268649    2.386227
     35          8           0        0.883317    0.693743    0.763928
     36          6           0        1.879007   -0.035427    0.055405
     37          6           0        3.233688    0.674460    0.239499
     38          6           0        3.266183    2.010201    0.650679
     39          6           0        4.474484    2.708864    0.750689
     40          6           0        4.493727    4.147070    1.214105
     41          6           0        5.662955    2.043705    0.431368
     42          6           0        5.664500    0.699042    0.044094
     43          6           0        6.963182   -0.018262   -0.242311
     44          6           0        4.440977    0.025443   -0.043074
     45          6           0        1.949432   -1.459426    0.618457
     46          6           0        1.707580   -1.648527    1.985058
     47          6           0        1.772691   -2.919352    2.562089
     48          6           0        1.474703   -3.120487    4.030212
     49          6           0        2.103048   -4.012629    1.747573
     50          6           0        2.361725   -3.852755    0.383794
     51          6           0        2.743299   -5.033648   -0.478285
     52          6           0        2.273511   -2.566725   -0.169753
     53          6           0        1.199435    2.280743   -2.095735
     54          6           0        2.498431    1.713481   -2.709572
     55          6           0        2.383560    0.178322   -2.580516
     56          1           0        0.792090   -0.954923   -1.594941
     57          1           0       -0.328823    0.869692   -2.174908
     58          1           0       -2.709454    4.369841   -2.660506
     59          1           0       -4.543129    2.023552   -1.898682
     60          1           0       -5.064492    3.561034   -2.616054
     61          1           0       -4.416190    3.527099   -0.964653
     62          1           0       -1.695265    2.741825   -4.232047
     63          1           0       -2.885256    1.513329   -3.739994
     64          1           0       -3.417032    2.968603   -4.606616
     65          1           0       -2.747169    5.197451   -0.728342
     66          1           0       -1.978365    6.216477    1.367791
     67          1           0       -0.359508    5.018377    2.836168
     68          1           0        0.451745    2.762204    2.165877
     69          1           0       -0.787108   -1.273154    1.131702
     70          1           0       -4.829566   -1.160916   -0.436026
     71          1           0       -4.364129    0.099325    0.751203
     72          1           0       -3.626839    0.099236   -0.841188
     73          1           0       -3.809784   -4.726652   -1.673292
     74          1           0       -4.590031   -3.154633   -1.840843
     75          1           0       -4.631733   -4.010546   -0.284853
     76          1           0       -0.393552   -3.604551    0.719900
     77          1           0       -1.045192   -4.995274   -0.145928
     78          1           0       -1.864675   -4.416902    1.295112
     79          1           0        0.079113   -3.965043   -2.014301
     80          1           0        1.266313   -3.386976   -4.087580
     81          1           0        0.492205   -1.481587   -5.484633
     82          1           0       -1.496754   -0.163631   -4.786043
     83          1           0       -2.714013   -0.749979   -2.733620
     84          1           0       -0.876954   -1.432502    3.409448
     85          1           0       -1.424746   -0.466332    5.625525
     86          1           0       -2.760471    1.627342    5.770546
     87          1           0       -3.526890    2.751238    3.688115
     88          1           0       -2.968447    1.786797    1.480486
     89          1           0        2.338521    2.512386    0.895565
     90          1           0        4.806819    4.217176    2.263829
     91          1           0        5.197705    4.748187    0.627824
     92          1           0        3.503401    4.607456    1.135606
     93          1           0        6.608246    2.579596    0.496151
     94          1           0        7.438298   -0.356044    0.687819
     95          1           0        7.679017    0.636513   -0.750971
     96          1           0        6.806734   -0.902423   -0.869166
     97          1           0        4.440483   -1.023467   -0.326137
     98          1           0        1.456061   -0.784875    2.591680
     99          1           0        0.523029   -3.649877    4.174853
    100          1           0        1.410239   -2.165214    4.560461
    101          1           0        2.249724   -3.723693    4.516089
    102          1           0        2.158501   -5.006879    2.187161
    103          1           0        2.441151   -4.885953   -1.521671
    104          1           0        3.829903   -5.188011   -0.477104
    105          1           0        2.285100   -5.961050   -0.118716
    106          1           0        2.468091   -2.444951   -1.232234
    107          1           0        0.548940    2.789441   -2.807751
    108          1           0        1.399471    2.967294   -1.274333
    109          1           0        3.361977    2.079567   -2.150900
    110          1           0        2.620373    2.019185   -3.752406
    111          1           0        3.349562   -0.292997   -2.391866
    112          1           0        1.971570   -0.255897   -3.496392
 ---------------------------------------------------------------------

 SCF Done:  E(RwB97XD) =  -2529.38609507     A.U. after   22 cycles

 The electronic state is 1-A.
 Alpha  occ. eigenvalues --  -66.37369 -19.34994 -19.31859 -19.30166 -14.72849
 Alpha  occ. eigenvalues --  -14.71671 -14.57650 -10.51751 -10.45937 -10.44012
 Alpha  occ. eigenvalues --  -10.43017 -10.41723 -10.41600 -10.41300 -10.40456
 Alpha  occ. eigenvalues --  -10.40282 -10.40052 -10.39714 -10.39565 -10.39546
 Alpha  occ. eigenvalues --  -10.39382 -10.38861 -10.38032 -10.38003 -10.37836
 Alpha  occ. eigenvalues --  -10.37768 -10.37638 -10.37609 -10.37604 -10.37434
 Alpha  occ. eigenvalues --  -10.37352 -10.37341 -10.37257 -10.36756 -10.36655
 Alpha  occ. eigenvalues --  -10.36575 -10.36312 -10.36159 -10.36112 -10.36105
 Alpha  occ. eigenvalues --  -10.36042 -10.35955 -10.35900 -10.35760 -10.35601
 Alpha  occ. eigenvalues --  -10.35490 -10.34920 -10.34735 -10.34482 -10.34315
 Alpha  occ. eigenvalues --  -10.34247 -10.33954 -10.33738 -10.32962  -6.95545
 Alpha  occ. eigenvalues --   -5.50764  -3.85352  -3.85086  -3.85053  -1.40316
 Alpha  occ. eigenvalues --   -1.23915  -1.22275  -1.19319  -1.14064  -1.06427
 Alpha  occ. eigenvalues --   -1.05515  -1.04726  -1.03733  -1.02849  -1.02059
 Alpha  occ. eigenvalues --   -0.98159  -0.97547  -0.96398  -0.96124  -0.95654
 Alpha  occ. eigenvalues --   -0.95480  -0.95288  -0.94407  -0.93511  -0.93068
 Alpha  occ. eigenvalues --   -0.92622  -0.92006  -0.91182  -0.90480  -0.89874
 Alpha  occ. eigenvalues --   -0.89145  -0.87838  -0.87256  -0.86375  -0.85957
 Alpha  occ. eigenvalues --   -0.85491  -0.84355  -0.84058  -0.80787  -0.80511
 Alpha  occ. eigenvalues --   -0.80218  -0.79349  -0.79178  -0.79103  -0.77841
 Alpha  occ. eigenvalues --   -0.77082  -0.76621  -0.75497  -0.74804  -0.74007
 Alpha  occ. eigenvalues --   -0.73528  -0.73238  -0.73077  -0.72786  -0.72600
 Alpha  occ. eigenvalues --   -0.72084  -0.71488  -0.70719  -0.69889  -0.69227
 Alpha  occ. eigenvalues --   -0.68920  -0.67186  -0.66258  -0.65875  -0.65539
 Alpha  occ. eigenvalues --   -0.65242  -0.64830  -0.64506  -0.64044  -0.63979
 Alpha  occ. eigenvalues --   -0.63642  -0.63572  -0.63387  -0.62751  -0.62246
 Alpha  occ. eigenvalues --   -0.61952  -0.61751  -0.61462  -0.61277  -0.60965
 Alpha  occ. eigenvalues --   -0.60690  -0.60562  -0.60345  -0.60011  -0.59751
 Alpha  occ. eigenvalues --   -0.59401  -0.59131  -0.58871  -0.58776  -0.58357
 Alpha  occ. eigenvalues --   -0.58214  -0.57740  -0.57321  -0.57251  -0.57126
 Alpha  occ. eigenvalues --   -0.56883  -0.56773  -0.56590  -0.56506  -0.56283
 Alpha  occ. eigenvalues --   -0.56059  -0.55816  -0.55631  -0.55513  -0.54910
 Alpha  occ. eigenvalues --   -0.54789  -0.54426  -0.54151  -0.53866  -0.53714
 Alpha  occ. eigenvalues --   -0.53449  -0.53276  -0.52990  -0.52566  -0.52356
 Alpha  occ. eigenvalues --   -0.52224  -0.51913  -0.51778  -0.51376  -0.51147
 Alpha  occ. eigenvalues --   -0.50964  -0.50597  -0.50273  -0.50116  -0.49920
 Alpha  occ. eigenvalues --   -0.49712  -0.49641  -0.49263  -0.48806  -0.48366
 Alpha  occ. eigenvalues --   -0.47991  -0.47529  -0.47372  -0.46430  -0.44001
 Alpha  occ. eigenvalues --   -0.43752  -0.43299  -0.42169  -0.41866  -0.41389
 Alpha  occ. eigenvalues --   -0.40048  -0.39602  -0.38934  -0.37982  -0.37731
 Alpha  occ. eigenvalues --   -0.36643
 Alpha virt. eigenvalues --   -0.13417  -0.11993  -0.08589  -0.06646  -0.05201
 Alpha virt. eigenvalues --   -0.03540  -0.03177  -0.02873  -0.02061  -0.01026
 Alpha virt. eigenvalues --   -0.00920  -0.00196  -0.00007   0.00303   0.01145

 Mulliken charges:
               1
     1  C   -0.174002
     2  N   -0.416506
     3  B    0.794977
     4  C   -0.321535
     5  C    0.191037
     6  O   -0.411482
     7  C   -0.050912
     8  C   -0.298165
     9  C   -0.315866
    10  C   -0.143637
    11  C   -0.111547
    12  C   -0.104983
    13  C   -0.129854
    14  O   -0.468016
    15  C    0.139217
    16  C   -0.328225
    17  C   -0.272315
    18  N    0.086876
    19  N    0.103697
    20  Si   1.098910
    21  C   -0.646590
    22  C   -0.680586
    23  C   -0.358756
    24  C   -0.105083
    25  C   -0.103280
    26  C   -0.100996
    27  C   -0.142011
    28  C   -0.081722
    29  C   -0.155828
    30  C   -0.112633
    31  C   -0.113829
    32  C   -0.092414
    33  C   -0.094402
    34  C   -0.101975
    35  O   -0.418672
    36  C    0.107128
    37  C   -0.038046
    38  C   -0.089223
    39  C   -0.105715
    40  C   -0.290173
    41  C   -0.072102
    42  C   -0.099024
    43  C   -0.283774
    44  C   -0.085888
    45  C   -0.059997
    46  C   -0.090944
    47  C   -0.081925
    48  C   -0.303694
    49  C   -0.108659
    50  C   -0.114942
    51  C   -0.282929
    52  C   -0.126344
    53  C   -0.101351
    54  C   -0.279857
    55  C   -0.187256
    56  H    0.196203
    57  H    0.272296
    58  H    0.139017
    59  H    0.100752
    60  H    0.137900
    61  H    0.137988
    62  H    0.128981
    63  H    0.101182
    64  H    0.141803
    65  H    0.125981
    66  H    0.119273
    67  H    0.112473
    68  H    0.134218
    69  H    0.168288
    70  H    0.161440
    71  H    0.171234
    72  H    0.191119
    73  H    0.175620
    74  H    0.160886
    75  H    0.142531
    76  H    0.198779
    77  H    0.169185
    78  H    0.143744
    79  H    0.134146
    80  H    0.131695
    81  H    0.139569
    82  H    0.141134
    83  H    0.119992
    84  H    0.128019
    85  H    0.123557
    86  H    0.130187
    87  H    0.125856
    88  H    0.158918
    89  H    0.126761
    90  H    0.145981
    91  H    0.132523
    92  H    0.123710
    93  H    0.101937
    94  H    0.148459
    95  H    0.133651
    96  H    0.117985
    97  H    0.116140
    98  H    0.137399
    99  H    0.125665
   100  H    0.136242
   101  H    0.153451
   102  H    0.102337
   103  H    0.111863
   104  H    0.157918
   105  H    0.130212
   106  H    0.110959
   107  H    0.157674
   108  H    0.180190
   109  H    0.178979
   110  H    0.145291
   111  H    0.158387
   112  H    0.138139
 Sum of Mulliken charges =   1.00000

 Dipole moment (field-independent basis, Debye):
    X=             -6.6875    Y=             -4.8030    Z=             -2.6112  Tot=              8.6376
 Quadrupole moment (field-independent basis, Debye-Ang):
   XX=           -265.6818   YY=           -272.5535   ZZ=           -280.2024
   XY=              3.2142   XZ=             -8.7338   YZ=             -7.8233

 Normal termination of Gaussian 16 at Sat Dec  3 14:11:39 2022.
